  93  93   0   0
  0.1016658E+02  0.9814900E-09  0.9814900E-09  0.9814900E-09  0.5000000E-15
  1.000000000000000E-004
  CAR 
 ice                                     
      9.65351874    -25.50421489  301     -1.71403402      1.00000000
    -25.504  0.0000E+00  0.0000E+00
    -25.387  0.0000E+00  0.0000E+00
    -25.270  0.0000E+00  0.0000E+00
    -25.153  0.0000E+00  0.0000E+00
    -25.035  0.0000E+00  0.0000E+00
    -24.918  0.0000E+00  0.0000E+00
    -24.801  0.0000E+00  0.0000E+00
    -24.684  0.0000E+00  0.0000E+00
    -24.567  0.0000E+00  0.0000E+00
    -24.449  0.0000E+00  0.0000E+00
    -24.332  0.3332E-02  0.3905E-03
    -24.215  0.3133E-01  0.4062E-02
    -24.098  0.3197E+00  0.4153E-01
    -23.981  0.2737E+01  0.3623E+00
    -23.864  0.8837E+01  0.1398E+01
    -23.746  0.4765E+01  0.1956E+01
    -23.629  0.3272E+01  0.2340E+01
    -23.512  0.1390E+02  0.3968E+01
    -23.395  0.1428E+02  0.5642E+01
    -23.278  0.3676E+01  0.6073E+01
    -23.160  0.6744E+01  0.6863E+01
    -23.043  0.1745E+02  0.8912E+01
    -22.926  0.2085E+02  0.1136E+02
    -22.809  0.3085E+02  0.1497E+02
    -22.692  0.2110E+02  0.1745E+02
    -22.574  0.6762E+01  0.1824E+02
    -22.457  0.1028E+02  0.1945E+02
    -22.340  0.1607E+02  0.2134E+02
    -22.223  0.2757E+02  0.2457E+02
    -22.106  0.2275E+02  0.2724E+02
    -21.988  0.1609E+02  0.2913E+02
    -21.871  0.2624E+02  0.3221E+02
    -21.754  0.2612E+02  0.3527E+02
    -21.637  0.1560E+02  0.3710E+02
    -21.520  0.2066E+02  0.3953E+02
    -21.402  0.2216E+02  0.4213E+02
    -21.285  0.3440E+02  0.4617E+02
    -21.168  0.2015E+02  0.4854E+02
    -21.051  0.1105E+02  0.4983E+02
    -20.934  0.9011E+01  0.5090E+02
    -20.817  0.1994E+02  0.5324E+02
    -20.699  0.1824E+02  0.5538E+02
    -20.582  0.1321E+02  0.5692E+02
    -20.465  0.7687E+01  0.5783E+02
    -20.348  0.1798E+01  0.5804E+02
    -20.231  0.3760E+01  0.5848E+02
    -20.113  0.8994E+01  0.5954E+02
    -19.996  0.3481E+01  0.5995E+02
    -19.879  0.6325E+00  0.6002E+02
    -19.762  0.1850E+01  0.6024E+02
    -19.645  0.8002E+01  0.6118E+02
    -19.527  0.5925E+01  0.6188E+02
    -19.410  0.9569E+00  0.6199E+02
    -19.293  0.9787E-01  0.6200E+02
    -19.176  0.0000E+00  0.6200E+02
    -19.059  0.0000E+00  0.6200E+02
    -18.941  0.0000E+00  0.6200E+02
    -18.824  0.0000E+00  0.6200E+02
    -18.707  0.0000E+00  0.6200E+02
    -18.590  0.0000E+00  0.6200E+02
    -18.473  0.0000E+00  0.6200E+02
    -18.355  0.0000E+00  0.6200E+02
    -18.238  0.0000E+00  0.6200E+02
    -18.121  0.0000E+00  0.6200E+02
    -18.004  0.0000E+00  0.6200E+02
    -17.887  0.0000E+00  0.6200E+02
    -17.770  0.0000E+00  0.6200E+02
    -17.652  0.0000E+00  0.6200E+02
    -17.535  0.0000E+00  0.6200E+02
    -17.418  0.0000E+00  0.6200E+02
    -17.301  0.0000E+00  0.6200E+02
    -17.184  0.0000E+00  0.6200E+02
    -17.066  0.0000E+00  0.6200E+02
    -16.949  0.0000E+00  0.6200E+02
    -16.832  0.0000E+00  0.6200E+02
    -16.715  0.0000E+00  0.6200E+02
    -16.598  0.0000E+00  0.6200E+02
    -16.480  0.0000E+00  0.6200E+02
    -16.363  0.0000E+00  0.6200E+02
    -16.246  0.0000E+00  0.6200E+02
    -16.129  0.0000E+00  0.6200E+02
    -16.012  0.0000E+00  0.6200E+02
    -15.894  0.0000E+00  0.6200E+02
    -15.777  0.0000E+00  0.6200E+02
    -15.660  0.0000E+00  0.6200E+02
    -15.543  0.0000E+00  0.6200E+02
    -15.426  0.0000E+00  0.6200E+02
    -15.308  0.0000E+00  0.6200E+02
    -15.191  0.0000E+00  0.6200E+02
    -15.074  0.0000E+00  0.6200E+02
    -14.957  0.0000E+00  0.6200E+02
    -14.840  0.0000E+00  0.6200E+02
    -14.723  0.0000E+00  0.6200E+02
    -14.605  0.0000E+00  0.6200E+02
    -14.488  0.0000E+00  0.6200E+02
    -14.371  0.0000E+00  0.6200E+02
    -14.254  0.0000E+00  0.6200E+02
    -14.137  0.0000E+00  0.6200E+02
    -14.019  0.0000E+00  0.6200E+02
    -13.902  0.0000E+00  0.6200E+02
    -13.785  0.0000E+00  0.6200E+02
    -13.668  0.0000E+00  0.6200E+02
    -13.551  0.0000E+00  0.6200E+02
    -13.433  0.0000E+00  0.6200E+02
    -13.316  0.0000E+00  0.6200E+02
    -13.199  0.0000E+00  0.6200E+02
    -13.082  0.0000E+00  0.6200E+02
    -12.965  0.0000E+00  0.6200E+02
    -12.847  0.0000E+00  0.6200E+02
    -12.730  0.0000E+00  0.6200E+02
    -12.613  0.0000E+00  0.6200E+02
    -12.496  0.0000E+00  0.6200E+02
    -12.379  0.5148E-02  0.6200E+02
    -12.261  0.4835E-01  0.6201E+02
    -12.144  0.4880E+00  0.6206E+02
    -12.027  0.3803E+01  0.6251E+02
    -11.910  0.8982E+01  0.6356E+02
    -11.793  0.3339E+01  0.6395E+02
    -11.676  0.8438E+00  0.6405E+02
    -11.558  0.3702E+01  0.6449E+02
    -11.441  0.1273E+02  0.6598E+02
    -11.324  0.1325E+02  0.6754E+02
    -11.207  0.7017E+01  0.6836E+02
    -11.090  0.9810E+01  0.6951E+02
    -10.972  0.8088E+01  0.7047E+02
    -10.855  0.1687E+02  0.7244E+02
    -10.738  0.1269E+02  0.7394E+02
    -10.621  0.1005E+02  0.7511E+02
    -10.504  0.1735E+02  0.7715E+02
    -10.386  0.2362E+02  0.7992E+02
    -10.269  0.3094E+02  0.8354E+02
    -10.152  0.2765E+02  0.8679E+02
    -10.035  0.2018E+02  0.8915E+02
     -9.918  0.9251E+01  0.9024E+02
     -9.800  0.1480E+02  0.9198E+02
     -9.683  0.1506E+02  0.9374E+02
     -9.566  0.9250E+01  0.9483E+02
     -9.449  0.1767E+02  0.9690E+02
     -9.332  0.2238E+02  0.9953E+02
     -9.214  0.2449E+02  0.1024E+03
     -9.097  0.2253E+02  0.1050E+03
     -8.980  0.3362E+02  0.1090E+03
     -8.863  0.3338E+02  0.1129E+03
     -8.746  0.2168E+02  0.1154E+03
     -8.629  0.1283E+02  0.1170E+03
     -8.511  0.1612E+02  0.1188E+03
     -8.394  0.1948E+02  0.1211E+03
     -8.277  0.2380E+02  0.1239E+03
     -8.160  0.2233E+02  0.1265E+03
     -8.043  0.1213E+02  0.1280E+03
     -7.925  0.9776E+01  0.1291E+03
     -7.808  0.1030E+02  0.1303E+03
     -7.691  0.1392E+02  0.1320E+03
     -7.574  0.1764E+02  0.1340E+03
     -7.457  0.2001E+02  0.1364E+03
     -7.339  0.2367E+02  0.1392E+03
     -7.222  0.2012E+02  0.1415E+03
     -7.105  0.1493E+02  0.1433E+03
     -6.988  0.2287E+02  0.1460E+03
     -6.871  0.2482E+02  0.1489E+03
     -6.753  0.2526E+02  0.1518E+03
     -6.636  0.2131E+02  0.1543E+03
     -6.519  0.2141E+02  0.1568E+03
     -6.402  0.2510E+02  0.1598E+03
     -6.285  0.1750E+02  0.1618E+03
     -6.167  0.1209E+02  0.1633E+03
     -6.050  0.1169E+02  0.1646E+03
     -5.933  0.1700E+02  0.1666E+03
     -5.816  0.2191E+02  0.1692E+03
     -5.699  0.2623E+02  0.1723E+03
     -5.581  0.2530E+02  0.1752E+03
     -5.464  0.2869E+02  0.1786E+03
     -5.347  0.3513E+02  0.1827E+03
     -5.230  0.3661E+02  0.1870E+03
     -5.113  0.3179E+02  0.1908E+03
     -4.996  0.2272E+02  0.1934E+03
     -4.878  0.1972E+02  0.1957E+03
     -4.761  0.2093E+02  0.1982E+03
     -4.644  0.2293E+02  0.2009E+03
     -4.527  0.3276E+02  0.2047E+03
     -4.410  0.3499E+02  0.2088E+03
     -4.292  0.3545E+02  0.2130E+03
     -4.175  0.2465E+02  0.2159E+03
     -4.058  0.2899E+02  0.2193E+03
     -3.941  0.4724E+02  0.2248E+03
     -3.824  0.3913E+02  0.2294E+03
     -3.706  0.2443E+02  0.2323E+03
     -3.589  0.2831E+02  0.2356E+03
     -3.472  0.2984E+02  0.2391E+03
     -3.355  0.2564E+02  0.2421E+03
     -3.238  0.2355E+02  0.2449E+03
     -3.120  0.9385E+01  0.2460E+03
     -3.003  0.7599E+01  0.2469E+03
     -2.886  0.7605E+01  0.2478E+03
     -2.769  0.1567E+01  0.2480E+03
     -2.652  0.1674E+00  0.2480E+03
     -2.534  0.0000E+00  0.2480E+03
     -2.417  0.0000E+00  0.2480E+03
     -2.300  0.0000E+00  0.2480E+03
     -2.183  0.0000E+00  0.2480E+03
     -2.066  0.0000E+00  0.2480E+03
     -1.949  0.0000E+00  0.2480E+03
     -1.831  0.0000E+00  0.2480E+03
     -1.714  0.0000E+00  0.2480E+03
     -1.597  0.0000E+00  0.2480E+03
     -1.480  0.0000E+00  0.2480E+03
     -1.363  0.0000E+00  0.2480E+03
     -1.245  0.0000E+00  0.2480E+03
     -1.128  0.0000E+00  0.2480E+03
     -1.011  0.0000E+00  0.2480E+03
     -0.894  0.0000E+00  0.2480E+03
     -0.777  0.0000E+00  0.2480E+03
     -0.659  0.0000E+00  0.2480E+03
     -0.542  0.0000E+00  0.2480E+03
     -0.425  0.0000E+00  0.2480E+03
     -0.308  0.0000E+00  0.2480E+03
     -0.191  0.0000E+00  0.2480E+03
     -0.073  0.7470E-06  0.2480E+03
      0.044  0.1744E-03  0.2480E+03
      0.161  0.2086E-02  0.2480E+03
      0.278  0.2183E-01  0.2480E+03
      0.395  0.1982E+00  0.2480E+03
      0.513  0.1064E+01  0.2482E+03
      0.630  0.2887E+01  0.2485E+03
      0.747  0.5037E+01  0.2491E+03
      0.864  0.5099E+01  0.2497E+03
      0.981  0.2302E+01  0.2499E+03
      1.098  0.4390E+00  0.2500E+03
      1.216  0.3498E+00  0.2500E+03
      1.333  0.1442E+01  0.2502E+03
      1.450  0.4372E+01  0.2507E+03
      1.567  0.6955E+01  0.2515E+03
      1.684  0.3549E+01  0.2520E+03
      1.802  0.1939E+01  0.2522E+03
      1.919  0.4416E+01  0.2527E+03
      2.036  0.6286E+01  0.2534E+03
      2.153  0.4751E+01  0.2540E+03
      2.270  0.5303E+01  0.2546E+03
      2.388  0.7104E+01  0.2555E+03
      2.505  0.5904E+01  0.2561E+03
      2.622  0.5519E+01  0.2568E+03
      2.739  0.7185E+01  0.2576E+03
      2.856  0.8121E+01  0.2586E+03
      2.974  0.8252E+01  0.2596E+03
      3.091  0.8666E+01  0.2606E+03
      3.208  0.9099E+01  0.2616E+03
      3.325  0.9173E+01  0.2627E+03
      3.442  0.8474E+01  0.2637E+03
      3.560  0.9046E+01  0.2648E+03
      3.677  0.1167E+02  0.2661E+03
      3.794  0.1269E+02  0.2676E+03
      3.911  0.1285E+02  0.2691E+03
      4.028  0.1264E+02  0.2706E+03
      4.145  0.1298E+02  0.2721E+03
      4.263  0.1479E+02  0.2739E+03
      4.380  0.1538E+02  0.2757E+03
      4.497  0.1496E+02  0.2774E+03
      4.614  0.1481E+02  0.2792E+03
      4.731  0.1434E+02  0.2809E+03
      4.849  0.1428E+02  0.2825E+03
      4.966  0.1537E+02  0.2843E+03
      5.083  0.1640E+02  0.2863E+03
      5.200  0.1756E+02  0.2883E+03
      5.317  0.1858E+02  0.2905E+03
      5.435  0.2072E+02  0.2929E+03
      5.552  0.2302E+02  0.2956E+03
      5.669  0.2410E+02  0.2985E+03
      5.786  0.2373E+02  0.3012E+03
      5.903  0.2312E+02  0.3040E+03
      6.021  0.2236E+02  0.3066E+03
      6.138  0.2283E+02  0.3093E+03
      6.255  0.2507E+02  0.3122E+03
      6.372  0.2642E+02  0.3153E+03
      6.489  0.2590E+02  0.3183E+03
      6.607  0.2463E+02  0.3212E+03
      6.724  0.2330E+02  0.3240E+03
      6.841  0.2345E+02  0.3267E+03
      6.958  0.2331E+02  0.3295E+03
      7.075  0.2229E+02  0.3321E+03
      7.192  0.2089E+02  0.3345E+03
      7.310  0.1960E+02  0.3368E+03
      7.427  0.1831E+02  0.3390E+03
      7.544  0.1623E+02  0.3409E+03
      7.661  0.1295E+02  0.3424E+03
      7.778  0.8725E+01  0.3434E+03
      7.896  0.3727E+01  0.3439E+03
      8.013  0.9123E+00  0.3440E+03
      8.130  0.1769E+00  0.3440E+03
      8.247  0.2221E-01  0.3440E+03
      8.364  0.1819E-02  0.3440E+03
      8.482  0.0000E+00  0.3440E+03
      8.599  0.0000E+00  0.3440E+03
      8.716  0.0000E+00  0.3440E+03
      8.833  0.0000E+00  0.3440E+03
      8.950  0.0000E+00  0.3440E+03
      9.068  0.0000E+00  0.3440E+03
      9.185  0.0000E+00  0.3440E+03
      9.302  0.0000E+00  0.3440E+03
      9.419  0.0000E+00  0.3440E+03
      9.536  0.0000E+00  0.3440E+03
      9.654  0.0000E+00  0.3440E+03
