Loading vasp/5.4.4-mpi-cuda
  Loading requirement: gcc/8.5.0 intel-compilers/19.0.4 cuda/10.1.1
    intel-mpi/2019.4
 running on   40 total cores
 distrk:  each k-point on   40 cores,    1 groups
 distr:  one band on   20 cores,    2 groups
 using from now: INCAR     
 vasp.5.4.4.18Apr17-6-g9f103f2a35 (build Dec 06 2019 17:20:26) complex          
  
 POSCAR found type information on POSCAR  O  H 
 POSCAR found :  2 types and      93 ions
 scaLAPACK will be used

 ----------------------------------------------------------------------------- 
|                                                                             |
|           W    W    AA    RRRRR   N    N  II  N    N   GGGG   !!!           |
|           W    W   A  A   R    R  NN   N  II  NN   N  G    G  !!!           |
|           W    W  A    A  R    R  N N  N  II  N N  N  G       !!!           |
|           W WW W  AAAAAA  RRRRR   N  N N  II  N  N N  G  GGG   !            |
|           WW  WW  A    A  R   R   N   NN  II  N   NN  G    G                |
|           W    W  A    A  R    R  N    N  II  N    N   GGGG   !!!           |
|                                                                             |
|      For optimal performance we recommend to set                            |
|        NCORE= 4 - approx SQRT( number of cores)                             |
|      NCORE specifies how many cores store one orbital (NPAR=cpu/NCORE).     |
|      This setting can  greatly improve the performance of VASP for DFT.     |
|      The default,   NCORE=1            might be grossly inefficient         |
|      on modern multi-core architectures or massively parallel machines.     |
|      Do your own testing !!!!                                               |
|      Unfortunately you need to use the default for GW and RPA calculations. |
|      (for HF NCORE is supported but not extensively tested yet)             |
|                                                                             |
 ----------------------------------------------------------------------------- 

 LDA part: xc-table for Pade appr. of Perdew
 POSCAR, INCAR and KPOINTS ok, starting setup
 FFT: planning ...
 WAVECAR not read
 WARNING: chargedensity file is incomplete
 WARNING: random wavefunctions but no delay for mixing, default for NELMDL
 entering main loop
       N       E                     dE             d eps       ncg     rms          rms(c)
RMM:   1     0.331866391715E+04    0.33187E+04   -0.74360E+04 86688   0.878E+02
RMM:   2     0.105012193559E+04   -0.22685E+04   -0.24346E+04 86688   0.253E+02
RMM:   3     0.865683252739E+02   -0.96355E+03   -0.10244E+04 86688   0.187E+02
RMM:   4    -0.343616520791E+03   -0.43018E+03   -0.36621E+03 86688   0.130E+02
RMM:   5    -0.451122421445E+03   -0.10751E+03   -0.97726E+02 86688   0.684E+01
RMM:   6    -0.478782713806E+03   -0.27660E+02   -0.25222E+02 86688   0.353E+01
RMM:   7    -0.486130993171E+03   -0.73483E+01   -0.70338E+01 86688   0.180E+01
RMM:   8    -0.488336704703E+03   -0.22057E+01   -0.20786E+01 86688   0.960E+00
RMM:   9    -0.489204507506E+03   -0.86780E+00   -0.85203E+00221702   0.509E+00
RMM:  10    -0.489324820713E+03   -0.12031E+00   -0.11339E+00235670   0.148E+00
RMM:  11    -0.489327027477E+03   -0.22068E-02   -0.38220E-02221809   0.313E-01
RMM:  12    -0.489327662694E+03   -0.63522E-03   -0.62314E-03223079   0.813E-02    0.397E+01
RMM:  13    -0.447826938642E+03    0.41501E+02   -0.14664E+02208598   0.243E+01    0.153E+01
RMM:  14    -0.446534924478E+03    0.12920E+01   -0.54381E+00217197   0.416E+00    0.963E+00
RMM:  15    -0.445976486730E+03    0.55844E+00   -0.16476E+00214847   0.355E+00    0.132E+00
RMM:  16    -0.445927825033E+03    0.48662E-01   -0.26915E-01221093   0.920E-01    0.543E-01
RMM:  17    -0.445932486845E+03   -0.46618E-02   -0.59896E-02209303   0.457E-01    0.380E-01
RMM:  18    -0.445926753229E+03    0.57336E-02   -0.14748E-02216965   0.264E-01    0.104E-01
RMM:  19    -0.445925059563E+03    0.16937E-02   -0.34930E-03218181   0.964E-02    0.420E-02
RMM:  20    -0.445924805428E+03    0.25414E-03   -0.79026E-04219874   0.445E-02    0.229E-02
RMM:  21    -0.445924778485E+03    0.26944E-04   -0.13158E-04219261   0.197E-02    0.125E-02
RMM:  22    -0.445924773024E+03    0.54603E-05   -0.27459E-05217078   0.103E-02    0.359E-03
RMM:  23    -0.445924772655E+03    0.36908E-06   -0.25501E-06168143   0.321E-03
   1 F= -.44899782E+03 E0= -.44899782E+03  d E =-.202586E-10
