  93  93   0   0
  0.1016658E+02  0.9814900E-09  0.9814900E-09  0.9814900E-09  0.5000000E-15
  1.000000000000000E-004
  CAR 
 ice                                     
      9.81996737    -25.37335819  301     -1.79371550      1.00000000
    -25.373  0.0000E+00  0.0000E+00
    -25.256  0.0000E+00  0.0000E+00
    -25.139  0.0000E+00  0.0000E+00
    -25.021  0.0000E+00  0.0000E+00
    -24.904  0.0000E+00  0.0000E+00
    -24.787  0.0000E+00  0.0000E+00
    -24.669  0.0000E+00  0.0000E+00
    -24.552  0.0000E+00  0.0000E+00
    -24.435  0.0000E+00  0.0000E+00
    -24.318  0.0000E+00  0.0000E+00
    -24.200  0.3143E-02  0.3687E-03
    -24.083  0.2963E-01  0.3845E-02
    -23.966  0.3050E+00  0.3963E-01
    -23.848  0.2640E+01  0.3493E+00
    -23.731  0.8913E+01  0.1395E+01
    -23.614  0.6196E+01  0.2122E+01
    -23.496  0.9387E+01  0.3223E+01
    -23.379  0.1497E+02  0.4979E+01
    -23.262  0.1084E+02  0.6251E+01
    -23.144  0.1301E+02  0.7778E+01
    -23.027  0.2190E+02  0.1035E+02
    -22.910  0.2447E+02  0.1322E+02
    -22.793  0.6412E+01  0.1397E+02
    -22.675  0.4743E+01  0.1453E+02
    -22.558  0.1881E+02  0.1674E+02
    -22.441  0.3204E+02  0.2050E+02
    -22.323  0.2750E+02  0.2373E+02
    -22.206  0.3021E+02  0.2727E+02
    -22.089  0.2311E+02  0.2999E+02
    -21.971  0.1869E+02  0.3219E+02
    -21.854  0.2788E+02  0.3546E+02
    -21.737  0.2670E+02  0.3860E+02
    -21.619  0.2213E+02  0.4120E+02
    -21.502  0.1399E+02  0.4285E+02
    -21.385  0.2295E+02  0.4554E+02
    -21.267  0.2428E+02  0.4840E+02
    -21.150  0.1349E+02  0.4998E+02
    -21.033  0.1083E+02  0.5126E+02
    -20.916  0.1086E+02  0.5253E+02
    -20.798  0.1224E+02  0.5397E+02
    -20.681  0.1360E+02  0.5557E+02
    -20.564  0.1401E+02  0.5721E+02
    -20.446  0.5788E+01  0.5790E+02
    -20.329  0.8058E+00  0.5799E+02
    -20.212  0.7460E-01  0.5800E+02
    -20.094  0.1728E-01  0.5800E+02
    -19.977  0.1740E+00  0.5802E+02
    -19.860  0.1700E+01  0.5822E+02
    -19.742  0.1057E+02  0.5946E+02
    -19.625  0.1633E+02  0.6138E+02
    -19.508  0.4696E+01  0.6193E+02
    -19.390  0.5473E+00  0.6199E+02
    -19.273  0.0000E+00  0.6200E+02
    -19.156  0.0000E+00  0.6200E+02
    -19.039  0.0000E+00  0.6200E+02
    -18.921  0.0000E+00  0.6200E+02
    -18.804  0.0000E+00  0.6200E+02
    -18.687  0.0000E+00  0.6200E+02
    -18.569  0.0000E+00  0.6200E+02
    -18.452  0.0000E+00  0.6200E+02
    -18.335  0.0000E+00  0.6200E+02
    -18.217  0.0000E+00  0.6200E+02
    -18.100  0.0000E+00  0.6200E+02
    -17.983  0.0000E+00  0.6200E+02
    -17.865  0.0000E+00  0.6200E+02
    -17.748  0.0000E+00  0.6200E+02
    -17.631  0.0000E+00  0.6200E+02
    -17.514  0.0000E+00  0.6200E+02
    -17.396  0.0000E+00  0.6200E+02
    -17.279  0.0000E+00  0.6200E+02
    -17.162  0.0000E+00  0.6200E+02
    -17.044  0.0000E+00  0.6200E+02
    -16.927  0.0000E+00  0.6200E+02
    -16.810  0.0000E+00  0.6200E+02
    -16.692  0.0000E+00  0.6200E+02
    -16.575  0.0000E+00  0.6200E+02
    -16.458  0.0000E+00  0.6200E+02
    -16.340  0.0000E+00  0.6200E+02
    -16.223  0.0000E+00  0.6200E+02
    -16.106  0.0000E+00  0.6200E+02
    -15.988  0.0000E+00  0.6200E+02
    -15.871  0.0000E+00  0.6200E+02
    -15.754  0.0000E+00  0.6200E+02
    -15.637  0.0000E+00  0.6200E+02
    -15.519  0.0000E+00  0.6200E+02
    -15.402  0.0000E+00  0.6200E+02
    -15.285  0.0000E+00  0.6200E+02
    -15.167  0.0000E+00  0.6200E+02
    -15.050  0.0000E+00  0.6200E+02
    -14.933  0.0000E+00  0.6200E+02
    -14.815  0.0000E+00  0.6200E+02
    -14.698  0.0000E+00  0.6200E+02
    -14.581  0.0000E+00  0.6200E+02
    -14.463  0.0000E+00  0.6200E+02
    -14.346  0.0000E+00  0.6200E+02
    -14.229  0.0000E+00  0.6200E+02
    -14.111  0.0000E+00  0.6200E+02
    -13.994  0.0000E+00  0.6200E+02
    -13.877  0.0000E+00  0.6200E+02
    -13.760  0.0000E+00  0.6200E+02
    -13.642  0.0000E+00  0.6200E+02
    -13.525  0.0000E+00  0.6200E+02
    -13.408  0.0000E+00  0.6200E+02
    -13.290  0.0000E+00  0.6200E+02
    -13.173  0.0000E+00  0.6200E+02
    -13.056  0.0000E+00  0.6200E+02
    -12.938  0.0000E+00  0.6200E+02
    -12.821  0.0000E+00  0.6200E+02
    -12.704  0.0000E+00  0.6200E+02
    -12.586  0.0000E+00  0.6200E+02
    -12.469  0.0000E+00  0.6200E+02
    -12.352  0.0000E+00  0.6200E+02
    -12.235  0.0000E+00  0.6200E+02
    -12.117  0.1012E-02  0.6200E+02
    -12.000  0.1018E-01  0.6200E+02
    -11.883  0.1061E+00  0.6201E+02
    -11.765  0.1043E+01  0.6214E+02
    -11.648  0.6702E+01  0.6292E+02
    -11.531  0.1350E+02  0.6451E+02
    -11.413  0.1730E+02  0.6653E+02
    -11.296  0.1567E+02  0.6837E+02
    -11.179  0.1219E+02  0.6980E+02
    -11.061  0.1006E+02  0.7099E+02
    -10.944  0.9831E+01  0.7214E+02
    -10.827  0.1001E+02  0.7332E+02
    -10.709  0.5254E+01  0.7394E+02
    -10.592  0.3030E+01  0.7430E+02
    -10.475  0.1364E+02  0.7590E+02
    -10.358  0.2429E+02  0.7875E+02
    -10.240  0.3648E+02  0.8303E+02
    -10.123  0.3573E+02  0.8722E+02
    -10.006  0.2013E+02  0.8958E+02
     -9.888  0.1054E+02  0.9083E+02
     -9.771  0.1999E+02  0.9318E+02
     -9.654  0.2245E+02  0.9582E+02
     -9.536  0.2733E+02  0.9902E+02
     -9.419  0.2480E+02  0.1019E+03
     -9.302  0.2768E+02  0.1052E+03
     -9.184  0.2148E+02  0.1077E+03
     -9.067  0.1835E+02  0.1099E+03
     -8.950  0.2312E+02  0.1126E+03
     -8.832  0.3088E+02  0.1162E+03
     -8.715  0.2091E+02  0.1187E+03
     -8.598  0.1581E+02  0.1205E+03
     -8.481  0.1911E+02  0.1228E+03
     -8.363  0.2009E+02  0.1251E+03
     -8.246  0.6602E+01  0.1259E+03
     -8.129  0.1688E+01  0.1261E+03
     -8.011  0.5910E+01  0.1268E+03
     -7.894  0.9773E+01  0.1280E+03
     -7.777  0.1035E+02  0.1292E+03
     -7.659  0.1427E+02  0.1308E+03
     -7.542  0.2055E+02  0.1333E+03
     -7.425  0.2581E+02  0.1363E+03
     -7.307  0.2928E+02  0.1397E+03
     -7.190  0.2518E+02  0.1427E+03
     -7.073  0.2085E+02  0.1451E+03
     -6.956  0.2215E+02  0.1477E+03
     -6.838  0.2696E+02  0.1509E+03
     -6.721  0.2439E+02  0.1538E+03
     -6.604  0.2137E+02  0.1563E+03
     -6.486  0.2042E+02  0.1587E+03
     -6.369  0.1410E+02  0.1603E+03
     -6.252  0.1609E+02  0.1622E+03
     -6.134  0.1820E+02  0.1644E+03
     -6.017  0.1447E+02  0.1661E+03
     -5.900  0.1690E+02  0.1680E+03
     -5.782  0.2648E+02  0.1712E+03
     -5.665  0.2708E+02  0.1743E+03
     -5.548  0.2756E+02  0.1776E+03
     -5.430  0.2228E+02  0.1802E+03
     -5.313  0.2700E+02  0.1834E+03
     -5.196  0.3219E+02  0.1871E+03
     -5.079  0.2907E+02  0.1906E+03
     -4.961  0.2358E+02  0.1933E+03
     -4.844  0.1152E+02  0.1947E+03
     -4.727  0.2107E+02  0.1972E+03
     -4.609  0.2622E+02  0.2002E+03
     -4.492  0.3211E+02  0.2040E+03
     -4.375  0.4131E+02  0.2089E+03
     -4.257  0.3373E+02  0.2128E+03
     -4.140  0.3558E+02  0.2170E+03
     -4.023  0.4959E+02  0.2228E+03
     -3.905  0.5029E+02  0.2287E+03
     -3.788  0.3914E+02  0.2333E+03
     -3.671  0.3066E+02  0.2369E+03
     -3.553  0.2170E+02  0.2395E+03
     -3.436  0.1411E+02  0.2411E+03
     -3.319  0.7428E+01  0.2420E+03
     -3.202  0.8475E+01  0.2430E+03
     -3.084  0.2009E+02  0.2454E+03
     -2.967  0.1771E+02  0.2474E+03
     -2.850  0.4204E+01  0.2479E+03
     -2.732  0.4477E+00  0.2480E+03
     -2.615  0.0000E+00  0.2480E+03
     -2.498  0.0000E+00  0.2480E+03
     -2.380  0.0000E+00  0.2480E+03
     -2.263  0.0000E+00  0.2480E+03
     -2.146  0.0000E+00  0.2480E+03
     -2.028  0.0000E+00  0.2480E+03
     -1.911  0.0000E+00  0.2480E+03
     -1.794  0.0000E+00  0.2480E+03
     -1.677  0.0000E+00  0.2480E+03
     -1.559  0.0000E+00  0.2480E+03
     -1.442  0.0000E+00  0.2480E+03
     -1.325  0.0000E+00  0.2480E+03
     -1.207  0.0000E+00  0.2480E+03
     -1.090  0.0000E+00  0.2480E+03
     -0.973  0.0000E+00  0.2480E+03
     -0.855  0.0000E+00  0.2480E+03
     -0.738  0.0000E+00  0.2480E+03
     -0.621  0.0000E+00  0.2480E+03
     -0.503  0.0000E+00  0.2480E+03
     -0.386  0.0000E+00  0.2480E+03
     -0.269  0.0000E+00  0.2480E+03
     -0.151  0.0000E+00  0.2480E+03
     -0.034  0.0000E+00  0.2480E+03
      0.083  0.0000E+00  0.2480E+03
      0.200  0.5386E-05  0.2480E+03
      0.318  0.2040E-03  0.2480E+03
      0.435  0.2257E-02  0.2480E+03
      0.552  0.2322E-01  0.2480E+03
      0.670  0.1985E+00  0.2480E+03
      0.787  0.8908E+00  0.2481E+03
      0.904  0.1996E+01  0.2484E+03
      1.022  0.3350E+01  0.2488E+03
      1.139  0.4321E+01  0.2493E+03
      1.256  0.3809E+01  0.2497E+03
      1.374  0.1987E+01  0.2499E+03
      1.491  0.7913E+00  0.2500E+03
      1.608  0.1244E+01  0.2502E+03
      1.726  0.2899E+01  0.2505E+03
      1.843  0.4995E+01  0.2511E+03
      1.960  0.5755E+01  0.2518E+03
      2.077  0.5816E+01  0.2525E+03
      2.195  0.6444E+01  0.2532E+03
      2.312  0.6083E+01  0.2539E+03
      2.429  0.5836E+01  0.2546E+03
      2.547  0.6324E+01  0.2554E+03
      2.664  0.6706E+01  0.2562E+03
      2.781  0.6363E+01  0.2569E+03
      2.899  0.7293E+01  0.2578E+03
      3.016  0.8322E+01  0.2587E+03
      3.133  0.8723E+01  0.2598E+03
      3.251  0.8581E+01  0.2608E+03
      3.368  0.8959E+01  0.2618E+03
      3.485  0.9918E+01  0.2630E+03
      3.602  0.1075E+02  0.2643E+03
      3.720  0.1184E+02  0.2656E+03
      3.837  0.1229E+02  0.2671E+03
      3.954  0.1115E+02  0.2684E+03
      4.072  0.1095E+02  0.2697E+03
      4.189  0.1198E+02  0.2711E+03
      4.306  0.1352E+02  0.2727E+03
      4.424  0.1445E+02  0.2744E+03
      4.541  0.1442E+02  0.2761E+03
      4.658  0.1477E+02  0.2778E+03
      4.776  0.1447E+02  0.2795E+03
      4.893  0.1536E+02  0.2813E+03
      5.010  0.1747E+02  0.2834E+03
      5.128  0.1939E+02  0.2856E+03
      5.245  0.1952E+02  0.2879E+03
      5.362  0.2059E+02  0.2903E+03
      5.479  0.2156E+02  0.2929E+03
      5.597  0.2122E+02  0.2954E+03
      5.714  0.2207E+02  0.2980E+03
      5.831  0.2251E+02  0.3006E+03
      5.949  0.2172E+02  0.3032E+03
      6.066  0.2117E+02  0.3056E+03
      6.183  0.2325E+02  0.3084E+03
      6.301  0.2534E+02  0.3114E+03
      6.418  0.2636E+02  0.3144E+03
      6.535  0.2733E+02  0.3177E+03
      6.653  0.2656E+02  0.3208E+03
      6.770  0.2531E+02  0.3237E+03
      6.887  0.2496E+02  0.3267E+03
      7.005  0.2416E+02  0.3295E+03
      7.122  0.2307E+02  0.3322E+03
      7.239  0.2090E+02  0.3347E+03
      7.356  0.1936E+02  0.3370E+03
      7.474  0.1804E+02  0.3391E+03
      7.591  0.1548E+02  0.3409E+03
      7.708  0.1225E+02  0.3423E+03
      7.826  0.8586E+01  0.3434E+03
      7.943  0.4034E+01  0.3438E+03
      8.060  0.1171E+01  0.3440E+03
      8.178  0.2143E+00  0.3440E+03
      8.295  0.3665E-01  0.3440E+03
      8.412  0.6475E-02  0.3440E+03
      8.530  0.6479E-03  0.3440E+03
      8.647  0.0000E+00  0.3440E+03
      8.764  0.0000E+00  0.3440E+03
      8.881  0.0000E+00  0.3440E+03
      8.999  0.0000E+00  0.3440E+03
      9.116  0.0000E+00  0.3440E+03
      9.233  0.0000E+00  0.3440E+03
      9.351  0.0000E+00  0.3440E+03
      9.468  0.0000E+00  0.3440E+03
      9.585  0.0000E+00  0.3440E+03
      9.703  0.0000E+00  0.3440E+03
      9.820  0.0000E+00  0.3440E+03
