       N       E                     dE             d eps       ncg     rms          rms(c)
RMM:   1     0.332888498038E+04    0.33289E+04   -0.74411E+04 86688   0.878E+02
RMM:   2     0.105474759813E+04   -0.22741E+04   -0.24423E+04 86688   0.253E+02
RMM:   3     0.880847656336E+02   -0.96666E+03   -0.10289E+04 86688   0.187E+02
RMM:   4    -0.345263422308E+03   -0.43335E+03   -0.36835E+03 86688   0.131E+02
RMM:   5    -0.452814262026E+03   -0.10755E+03   -0.98019E+02 86688   0.686E+01
RMM:   6    -0.480332850652E+03   -0.27519E+02   -0.25136E+02 86688   0.353E+01
RMM:   7    -0.487608370888E+03   -0.72755E+01   -0.69724E+01 86688   0.180E+01
RMM:   8    -0.489780501022E+03   -0.21721E+01   -0.20494E+01 86688   0.956E+00
RMM:   9    -0.490630211851E+03   -0.84971E+00   -0.83473E+00221708   0.507E+00
RMM:  10    -0.490746804592E+03   -0.11659E+00   -0.11013E+00234772   0.147E+00
RMM:  11    -0.490749035833E+03   -0.22312E-02   -0.37745E-02221785   0.315E-01
RMM:  12    -0.490749652718E+03   -0.61689E-03   -0.60560E-03222591   0.814E-02    0.398E+01
RMM:  13    -0.449085787844E+03    0.41664E+02   -0.14695E+02210562   0.244E+01    0.152E+01
RMM:  14    -0.447833956216E+03    0.12518E+01   -0.56006E+00218483   0.422E+00    0.959E+00
RMM:  15    -0.447321437859E+03    0.51252E+00   -0.17024E+00214685   0.360E+00    0.137E+00
RMM:  16    -0.447276315859E+03    0.45122E-01   -0.31524E-01221758   0.101E+00    0.534E-01
RMM:  17    -0.447284042777E+03   -0.77269E-02   -0.36040E-02208907   0.380E-01    0.288E-01
RMM:  18    -0.447281289903E+03    0.27529E-02   -0.83250E-03216974   0.198E-01    0.934E-02
RMM:  19    -0.447280124846E+03    0.11651E-02   -0.26730E-03218702   0.861E-02    0.377E-02
RMM:  20    -0.447279918693E+03    0.20615E-03   -0.56743E-04220342   0.380E-02    0.201E-02
RMM:  21    -0.447279891366E+03    0.27327E-04   -0.89011E-05220297   0.157E-02    0.965E-03
RMM:  22    -0.447279884907E+03    0.64587E-05   -0.23570E-05209929   0.892E-03    0.331E-03
RMM:  23    -0.447279884677E+03    0.23056E-06   -0.33724E-06172949   0.369E-03
   1 F= -.45031490E+03 E0= -.45031490E+03  d E =-.551099E-10
