 vasp.5.4.4.18Apr17-6-g9f103f2a35 (build Feb 03 2021 10:20:21) gamma-only       
  
 executed on             LinuxGNU date 2024.04.12  09:59:29
 running on   40 total cores
 distrk:  each k-point on   40 cores,    1 groups
 distr:  one band on NCORES_PER_BAND=  20 cores,    2 groups


--------------------------------------------------------------------------------------------------------


 INCAR:
 POTCAR:    PAW_PBE H 15Jun2001                   
 POTCAR:    PAW_PBE O 08Apr2002                   

 ----------------------------------------------------------------------------- 
|                                                                             |
|           W    W    AA    RRRRR   N    N  II  N    N   GGGG   !!!           |
|           W    W   A  A   R    R  NN   N  II  NN   N  G    G  !!!           |
|           W    W  A    A  R    R  N N  N  II  N N  N  G       !!!           |
|           W WW W  AAAAAA  RRRRR   N  N N  II  N  N N  G  GGG   !            |
|           WW  WW  A    A  R   R   N   NN  II  N   NN  G    G                |
|           W    W  A    A  R    R  N    N  II  N    N   GGGG   !!!           |
|                                                                             |
|      For optimal performance we recommend to set                            |
|        NCORE= 4 - approx SQRT( number of cores)                             |
|      NCORE specifies how many cores store one orbital (NPAR=cpu/NCORE).     |
|      This setting can  greatly improve the performance of VASP for DFT.     |
|      The default,   NCORE=1            might be grossly inefficient         |
|      on modern multi-core architectures or massively parallel machines.     |
|      Do your own testing !!!!                                               |
|      Unfortunately you need to use the default for GW and RPA calculations. |
|      (for HF NCORE is supported but not extensively tested yet)             |
|                                                                             |
 ----------------------------------------------------------------------------- 

 POTCAR:    PAW_PBE H 15Jun2001                   
  local pseudopotential read in
  atomic valenz-charges read in
  non local Contribution for L=           0  read in
    real space projection operators read in
  non local Contribution for L=           0  read in
    real space projection operators read in
  non local Contribution for L=           1  read in
    real space projection operators read in
    PAW grid and wavefunctions read in
 
   number of l-projection  operators is LMAX  =           3
   number of lm-projection operators is LMMAX =           5
 
 POTCAR:    PAW_PBE O 08Apr2002                   
  local pseudopotential read in
  partial core-charges read in
  partial kinetic energy density read in
  kinetic energy density of atom read in
  atomic valenz-charges read in
  non local Contribution for L=           0  read in
    real space projection operators read in
  non local Contribution for L=           0  read in
    real space projection operators read in
  non local Contribution for L=           1  read in
    real space projection operators read in
  non local Contribution for L=           1  read in
    real space projection operators read in
    PAW grid and wavefunctions read in
 
   number of l-projection  operators is LMAX  =           4
   number of lm-projection operators is LMMAX =           8
 
 Optimization of the real space projectors (new method)

 maximal supplied QI-value         = 34.20
 optimisation between [QCUT,QGAM] = [  9.92, 20.18] = [ 27.55,114.04] Ry 
 Optimized for a Real-space Cutoff    1.26 Angstroem

   l    n(q)    QCUT    max X(q) W(low)/X(q) W(high)/X(q)  e(spline) 
   0      8     9.919    19.460    0.50E-03    0.23E-03    0.29E-06
   0      8     9.919    12.209    0.48E-03    0.23E-03    0.28E-06
   1      7     9.919     4.655    0.17E-03    0.75E-03    0.30E-06
 Optimization of the real space projectors (new method)

 maximal supplied QI-value         = 24.76
 optimisation between [QCUT,QGAM] = [ 10.15, 20.30] = [ 28.85,115.39] Ry 
 Optimized for a Real-space Cutoff    1.38 Angstroem

   l    n(q)    QCUT    max X(q) W(low)/X(q) W(high)/X(q)  e(spline) 
   0      8    10.150    20.381    0.22E-03    0.32E-03    0.29E-06
   0      8    10.150    15.268    0.23E-03    0.35E-03    0.30E-06
   1      8    10.150     5.964    0.46E-03    0.53E-03    0.21E-06
   1      8    10.150     5.382    0.38E-03    0.45E-03    0.19E-06
  PAW_PBE H 15Jun2001                   :
 energy of atom  1       EATOM=  -12.4884
 kinetic energy error for atom=    0.0098 (will be added to EATOM!!)
  PAW_PBE O 08Apr2002                   :
 energy of atom  2       EATOM= -432.3788
 kinetic energy error for atom=    0.1156 (will be added to EATOM!!)
 
 
 POSCAR: bilayer_5                               
  positions in direct lattice
  velocities in cartesian coordinates
 exchange correlation table for  LEXCH =        8
   RHO(1)=    0.500       N(1)  =     2000
   RHO(2)=  100.500       N(2)  =     4000
 


--------------------------------------------------------------------------------------------------------


 ion  position               nearest neighbor table
   1  0.167  0.063  0.299- 292 1.01
   2  0.167  0.063  0.451- 293 1.01
   3  0.167  0.063  0.604- 294 1.01
   4  0.396  0.333  0.299- 298 1.01
   5  0.396  0.333  0.451- 299 1.01
   6  0.396  0.333  0.604- 300 1.01
   7  0.104  0.167  0.222- 316 1.00
   8  0.104  0.167  0.375- 317 1.01
   9  0.104  0.167  0.528- 318 1.01
  10  0.063  0.396  0.222- 322 1.00
  11  0.063  0.396  0.375- 323 1.01
  12  0.063  0.396  0.528- 324 1.01
  13  0.167  0.104  0.222- 316 1.00
  14  0.167  0.104  0.375- 317 1.01
  15  0.167  0.104  0.528- 318 1.01
  16  0.396  0.063  0.222- 310 1.00
  17  0.396  0.063  0.375- 311 1.01
  18  0.396  0.063  0.528- 312 1.01
  19  0.063  0.167  0.299- 304 1.01
  20  0.063  0.167  0.451- 305 1.01
  21  0.063  0.167  0.604- 306 1.01
  22  0.333  0.396  0.299- 298 1.01
  23  0.333  0.396  0.451- 299 1.01
  24  0.333  0.396  0.604- 300 1.01
  25  0.176  0.000  0.190- 289 0.98
  26  0.171  0.000  0.342- 290 0.99
  27  0.171  0.000  0.495- 291 0.99
  28  0.237  0.000  0.217- 289 1.03
  29  0.234  0.000  0.370- 290 1.03
  30  0.234  0.000  0.522- 291 1.03
  31  0.324  0.324  0.190- 295 0.98
  32  0.329  0.329  0.342- 296 0.99
  33  0.329  0.329  0.495- 297 0.99
  34  0.263  0.263  0.217- 295 1.03
  35  0.266  0.266  0.370- 296 1.03
  36  0.266  0.266  0.522- 297 1.03
  37  1.000  0.176  0.190- 301 0.98
  38  1.000  0.171  0.342- 302 0.99
  39  1.000  0.171  0.495- 303 0.99
  40  1.000  0.237  0.217- 301 1.03
  41  1.000  0.234  0.370- 302 1.03
  42  1.000  0.234  0.522- 303 1.03
  43  0.329  0.000  0.266- 307 0.99
  44  0.329  0.000  0.418- 308 0.99
  45  0.329  0.000  0.571- 309 0.99
  46  0.266  0.000  0.294- 307 1.03
  47  0.266  0.000  0.446- 308 1.03
  48  0.266  0.000  0.599- 309 1.03
  49  0.171  0.171  0.266- 313 0.99
  50  0.171  0.171  0.418- 314 0.99
  51  0.171  0.171  0.571- 315 0.99
  52  0.234  0.234  0.294- 313 1.03
  53  0.234  0.234  0.446- 314 1.03
  54  0.234  0.234  0.599- 315 1.03
  55  1.000  0.329  0.266- 319 0.99
  56  1.000  0.329  0.418- 320 0.99
  57  1.000  0.329  0.571- 321 0.99
  58  0.000  0.266  0.294- 319 1.03
  59  0.000  0.266  0.446- 320 1.03
  60  0.000  0.266  0.599- 321 1.03
  61  0.667  0.063  0.299- 328 1.01
  62  0.667  0.063  0.451- 329 1.01
  63  0.667  0.063  0.604- 330 1.01
  64  0.896  0.333  0.299- 334 1.01
  65  0.896  0.333  0.451- 335 1.01
  66  0.896  0.333  0.604- 336 1.01
  67  0.437  0.104  0.299- 340 1.01
  68  0.437  0.104  0.451- 341 1.01
  69  0.437  0.104  0.604- 342 1.01
  70  0.604  0.167  0.222- 352 1.00
  71  0.604  0.167  0.375- 353 1.01
  72  0.604  0.167  0.528- 354 1.01
  73  0.563  0.396  0.222- 358 1.00
  74  0.563  0.396  0.375- 359 1.01
  75  0.563  0.396  0.528- 360 1.01
  76  0.437  0.333  0.222- 358 1.00
  77  0.437  0.333  0.375- 359 1.01
  78  0.437  0.333  0.528- 360 1.01
  79  0.667  0.104  0.222- 352 1.00
  80  0.667  0.104  0.375- 353 1.01
  81  0.667  0.104  0.528- 354 1.01
  82  0.896  0.063  0.222- 346 1.00
  83  0.896  0.063  0.375- 347 1.01
  84  0.896  0.063  0.528- 348 1.01
  85  0.563  0.167  0.299- 340 1.01
  86  0.563  0.167  0.451- 341 1.01
  87  0.563  0.167  0.604- 342 1.01
  88  0.833  0.396  0.299- 334 1.01
  89  0.833  0.396  0.451- 335 1.01
  90  0.833  0.396  0.604- 336 1.01
  91  0.676  0.000  0.190- 325 0.98
  92  0.671  0.000  0.342- 326 0.99
  93  0.671  0.000  0.495- 327 0.99
  94  0.737  0.000  0.217- 325 1.03
  95  0.734  0.000  0.370- 326 1.03
  96  0.734  0.000  0.522- 327 1.03
  97  0.824  0.324  0.190- 331 0.98
  98  0.829  0.329  0.342- 332 0.99
  99  0.829  0.329  0.495- 333 0.99
 100  0.763  0.263  0.217- 331 1.03
 101  0.766  0.266  0.370- 332 1.03
 102  0.766  0.266  0.522- 333 1.03
 103  0.500  0.176  0.190- 337 0.98
 104  0.500  0.171  0.342- 338 0.99
 105  0.500  0.171  0.495- 339 0.99
 106  0.500  0.237  0.217- 337 1.03
 107  0.500  0.234  0.370- 338 1.03
 108  0.500  0.234  0.522- 339 1.03
 109  0.829  0.000  0.266- 343 0.99
 110  0.829  0.000  0.418- 344 0.99
 111  0.829  0.000  0.571- 345 0.99
 112  0.766  0.000  0.294- 343 1.03
 113  0.766  0.000  0.446- 344 1.03
 114  0.766  0.000  0.599- 345 1.03
 115  0.671  0.171  0.266- 349 0.99
 116  0.671  0.171  0.418- 350 0.99
 117  0.671  0.171  0.571- 351 0.99
 118  0.734  0.234  0.294- 349 1.03
 119  0.734  0.234  0.446- 350 1.03
 120  0.734  0.234  0.599- 351 1.03
 121  0.500  0.329  0.266- 355 0.99
 122  0.500  0.329  0.418- 356 0.99
 123  0.500  0.329  0.571- 357 0.99
 124  0.500  0.266  0.294- 355 1.03
 125  0.500  0.266  0.446- 356 1.03
 126  0.500  0.266  0.599- 357 1.03
 127  0.167  0.563  0.299- 364 1.01
 128  0.167  0.563  0.451- 365 1.01
 129  0.167  0.563  0.604- 366 1.01
 130  0.396  0.833  0.299- 370 1.01
 131  0.396  0.833  0.451- 371 1.01
 132  0.396  0.833  0.604- 372 1.01
 133  0.333  0.437  0.222- 382 1.00
 134  0.333  0.437  0.375- 383 1.01
 135  0.333  0.437  0.528- 384 1.01
 136  0.104  0.667  0.222- 388 1.00
 137  0.104  0.667  0.375- 389 1.01
 138  0.104  0.667  0.528- 390 1.01
 139  0.063  0.896  0.222- 394 1.00
 140  0.063  0.896  0.375- 395 1.01
 141  0.063  0.896  0.528- 396 1.01
 142  0.167  0.604  0.222- 388 1.00
 143  0.167  0.604  0.375- 389 1.01
 144  0.167  0.604  0.528- 390 1.01
 145  0.396  0.563  0.222- 382 1.00
 146  0.396  0.563  0.375- 383 1.01
 147  0.396  0.563  0.528- 384 1.01
 148  0.063  0.667  0.299- 376 1.01
 149  0.063  0.667  0.451- 377 1.01
 150  0.063  0.667  0.604- 378 1.01
 151  0.333  0.896  0.299- 370 1.01
 152  0.333  0.896  0.451- 371 1.01
 153  0.333  0.896  0.604- 372 1.01
 154  0.104  0.437  0.299- 364 1.01
 155  0.104  0.437  0.451- 365 1.01
 156  0.104  0.437  0.604- 366 1.01
 157  0.176  0.500  0.190- 361 0.98
 158  0.171  0.500  0.342- 362 0.99
 159  0.171  0.500  0.495- 363 0.99
 160  0.237  0.500  0.217- 361 1.03
 161  0.234  0.500  0.370- 362 1.03
 162  0.234  0.500  0.522- 363 1.03
 163  0.324  0.824  0.190- 367 0.98
 164  0.329  0.829  0.342- 368 0.99
 165  0.329  0.829  0.495- 369 0.99
 166  0.263  0.763  0.217- 367 1.03
 167  0.266  0.766  0.370- 368 1.03
 168  0.266  0.766  0.522- 369 1.03
 169  1.000  0.676  0.190- 373 0.98
 170  1.000  0.671  0.342- 374 0.99
 171  1.000  0.671  0.495- 375 0.99
 172  1.000  0.737  0.217- 373 1.03
 173  1.000  0.734  0.370- 374 1.03
 174  1.000  0.734  0.522- 375 1.03
 175  0.329  0.500  0.266- 379 0.99
 176  0.329  0.500  0.418- 380 0.99
 177  0.329  0.500  0.571- 381 0.99
 178  0.266  0.500  0.294- 379 1.03
 179  0.266  0.500  0.446- 380 1.03
 180  0.266  0.500  0.599- 381 1.03
 181  0.171  0.671  0.266- 385 0.99
 182  0.171  0.671  0.418- 386 0.99
 183  0.171  0.671  0.571- 387 0.99
 184  0.234  0.734  0.294- 385 1.03
 185  0.234  0.734  0.446- 386 1.03
 186  0.234  0.734  0.599- 387 1.03
 187  0.000  0.829  0.266- 391 0.99
 188  0.000  0.829  0.418- 392 0.99
 189  0.000  0.829  0.571- 393 0.99
 190  1.000  0.766  0.294- 391 1.03
 191  1.000  0.766  0.446- 392 1.03
 192  1.000  0.766  0.599- 393 1.03
 193  0.667  0.563  0.299- 400 1.01
 194  0.667  0.563  0.451- 401 1.01
 195  0.667  0.563  0.604- 402 1.01
 196  0.896  0.833  0.299- 406 1.01
 197  0.896  0.833  0.451- 407 1.01
 198  0.896  0.833  0.604- 408 1.01
 199  0.437  0.604  0.299- 412 1.01
 200  0.437  0.604  0.451- 413 1.01
 201  0.437  0.604  0.604- 414 1.01
 202  0.833  0.437  0.222- 418 1.00
 203  0.833  0.437  0.375- 419 1.01
 204  0.833  0.437  0.528- 420 1.01
 205  0.604  0.667  0.222- 424 1.00
 206  0.604  0.667  0.375- 425 1.01
 207  0.604  0.667  0.528- 426 1.01
 208  0.563  0.896  0.222- 430 1.00
 209  0.563  0.896  0.375- 431 1.01
 210  0.563  0.896  0.528- 432 1.01
 211  0.437  0.833  0.222- 430 1.00
 212  0.437  0.833  0.375- 431 1.01
 213  0.437  0.833  0.528- 432 1.01
 214  0.667  0.604  0.222- 424 1.00
 215  0.667  0.604  0.375- 425 1.01
 216  0.667  0.604  0.528- 426 1.01
 217  0.896  0.563  0.222- 418 1.00
 218  0.896  0.563  0.375- 419 1.01
 219  0.896  0.563  0.528- 420 1.01
 220  0.563  0.667  0.299- 412 1.01
 221  0.563  0.667  0.451- 413 1.01
 222  0.563  0.667  0.604- 414 1.01
 223  0.833  0.896  0.299- 406 1.01
 224  0.833  0.896  0.451- 407 1.01
 225  0.833  0.896  0.604- 408 1.01
 226  0.604  0.437  0.299- 400 1.01
 227  0.604  0.437  0.451- 401 1.01
 228  0.604  0.437  0.604- 402 1.01
 229  0.676  0.500  0.190- 397 0.98
 230  0.671  0.500  0.342- 398 0.99
 231  0.671  0.500  0.495- 399 0.99
 232  0.737  0.500  0.217- 397 1.03
 233  0.734  0.500  0.370- 398 1.03
 234  0.734  0.500  0.522- 399 1.03
 235  0.824  0.824  0.190- 403 0.98
 236  0.829  0.829  0.342- 404 0.99
 237  0.829  0.829  0.495- 405 0.99
 238  0.763  0.763  0.217- 403 1.03
 239  0.766  0.766  0.370- 404 1.03
 240  0.766  0.766  0.522- 405 1.03
 241  0.500  0.676  0.190- 409 0.98
 242  0.500  0.671  0.342- 410 0.99
 243  0.500  0.671  0.495- 411 0.99
 244  0.500  0.737  0.217- 409 1.03
 245  0.500  0.734  0.370- 410 1.03
 246  0.500  0.734  0.522- 411 1.03
 247  0.829  0.500  0.266- 415 0.99
 248  0.829  0.500  0.418- 416 0.99
 249  0.829  0.500  0.571- 417 0.99
 250  0.766  0.500  0.294- 415 1.03
 251  0.766  0.500  0.446- 416 1.03
 252  0.766  0.500  0.599- 417 1.03
 253  0.671  0.671  0.266- 421 0.99
 254  0.671  0.671  0.418- 422 0.99
 255  0.671  0.671  0.571- 423 0.99
 256  0.734  0.734  0.294- 421 1.03
 257  0.734  0.734  0.446- 422 1.03
 258  0.734  0.734  0.599- 423 1.03
 259  0.500  0.829  0.266- 427 0.99
 260  0.500  0.829  0.418- 428 0.99
 261  0.500  0.829  0.571- 429 0.99
 262  0.500  0.766  0.294- 427 1.03
 263  0.500  0.766  0.446- 428 1.03
 264  0.500  0.766  0.599- 429 1.03
 265  0.937  0.104  0.299- 304 1.01
 266  0.937  0.104  0.451- 305 1.01
 267  0.937  0.104  0.604- 306 1.01
 268  0.937  0.333  0.222- 322 1.00
 269  0.937  0.333  0.375- 323 1.01
 270  0.937  0.333  0.528- 324 1.01
 271  0.937  0.604  0.299- 376 1.01
 272  0.937  0.604  0.451- 377 1.01
 273  0.937  0.604  0.604- 378 1.01
 274  0.937  0.833  0.222- 394 1.00
 275  0.937  0.833  0.375- 395 1.01
 276  0.937  0.833  0.528- 396 1.01
 277  0.333  0.937  0.222- 310 1.00
 278  0.333  0.937  0.375- 311 1.01
 279  0.333  0.937  0.528- 312 1.01
 280  0.104  0.937  0.299- 292 1.01
 281  0.104  0.937  0.451- 293 1.01
 282  0.104  0.937  0.604- 294 1.01
 283  0.833  0.937  0.222- 346 1.00
 284  0.833  0.937  0.375- 347 1.01
 285  0.833  0.937  0.528- 348 1.01
 286  0.604  0.937  0.299- 328 1.01
 287  0.604  0.937  0.451- 329 1.01
 288  0.604  0.937  0.604- 330 1.01
 289  0.171  0.000  0.210-  25 0.98  28 1.03
 290  0.168  0.000  0.362-  26 0.99  29 1.03
 291  0.168  0.000  0.515-  27 0.99  30 1.03
 292  0.169  0.000  0.306- 280 1.01   1 1.01
 293  0.169  0.000  0.458- 281 1.01   2 1.01
 294  0.171  0.000  0.610- 282 1.01   3 1.01
 295  0.329  0.329  0.210-  31 0.98  34 1.03
 296  0.332  0.332  0.362-  32 0.99  35 1.03
 297  0.332  0.332  0.515-  33 0.99  36 1.03
 298  0.331  0.331  0.306-  22 1.01   4 1.01
 299  0.331  0.331  0.458-  23 1.01   5 1.01
 300  0.329  0.329  0.610-  24 1.01   6 1.01
 301  0.000  0.171  0.210-  37 0.98  40 1.03
 302  0.000  0.168  0.362-  38 0.99  41 1.03
 303  0.000  0.168  0.515-  39 0.99  42 1.03
 304  0.000  0.169  0.306-  19 1.01 265 1.01
 305  0.000  0.169  0.458-  20 1.01 266 1.01
 306  0.000  0.171  0.610-  21 1.01 267 1.01
 307  0.332  0.000  0.286-  43 0.99  46 1.03
 308  0.332  0.000  0.439-  44 0.99  47 1.03
 309  0.332  0.000  0.591-  45 0.99  48 1.03
 310  0.332  0.000  0.230-  16 1.00 277 1.00
 311  0.331  0.000  0.382-  17 1.01 278 1.01
 312  0.331  0.000  0.535-  18 1.01 279 1.01
 313  0.168  0.168  0.286-  49 0.99  52 1.03
 314  0.168  0.168  0.439-  50 0.99  53 1.03
 315  0.168  0.168  0.591-  51 0.99  54 1.03
 316  0.168  0.168  0.230-  13 1.00   7 1.00
 317  0.169  0.169  0.382-  14 1.01   8 1.01
 318  0.169  0.169  0.535-  15 1.01   9 1.01
 319  1.000  0.332  0.286-  55 0.99  58 1.03
 320  1.000  0.332  0.439-  56 0.99  59 1.03
 321  1.000  0.332  0.591-  57 0.99  60 1.03
 322  1.000  0.332  0.230-  10 1.00 268 1.00
 323  1.000  0.331  0.382-  11 1.01 269 1.01
 324  1.000  0.331  0.535-  12 1.01 270 1.01
 325  0.671  0.000  0.210-  91 0.98  94 1.03
 326  0.668  0.000  0.362-  92 0.99  95 1.03
 327  0.668  0.000  0.515-  93 0.99  96 1.03
 328  0.669  0.000  0.306- 286 1.01  61 1.01
 329  0.669  0.000  0.458- 287 1.01  62 1.01
 330  0.671  0.000  0.610- 288 1.01  63 1.01
 331  0.829  0.329  0.210-  97 0.98 100 1.03
 332  0.832  0.332  0.362-  98 0.99 101 1.03
 333  0.832  0.332  0.515-  99 0.99 102 1.03
 334  0.831  0.331  0.306-  88 1.01  64 1.01
 335  0.831  0.331  0.458-  89 1.01  65 1.01
 336  0.829  0.329  0.610-  90 1.01  66 1.01
 337  0.500  0.171  0.210- 103 0.98 106 1.03
 338  0.500  0.168  0.362- 104 0.99 107 1.03
 339  0.500  0.168  0.515- 105 0.99 108 1.03
 340  0.500  0.169  0.306-  85 1.01  67 1.01
 341  0.500  0.169  0.458-  86 1.01  68 1.01
 342  0.500  0.171  0.610-  87 1.01  69 1.01
 343  0.832  0.000  0.286- 109 0.99 112 1.03
 344  0.832  0.000  0.439- 110 0.99 113 1.03
 345  0.832  0.000  0.591- 111 0.99 114 1.03
 346  0.832  0.000  0.230-  82 1.00 283 1.00
 347  0.831  0.000  0.382-  83 1.01 284 1.01
 348  0.831  0.000  0.535-  84 1.01 285 1.01
 349  0.668  0.168  0.286- 115 0.99 118 1.03
 350  0.668  0.168  0.439- 116 0.99 119 1.03
 351  0.668  0.168  0.591- 117 0.99 120 1.03
 352  0.668  0.168  0.230-  79 1.00  70 1.00
 353  0.669  0.169  0.382-  80 1.01  71 1.01
 354  0.669  0.169  0.535-  81 1.01  72 1.01
 355  0.500  0.332  0.286- 121 0.99 124 1.03
 356  0.500  0.332  0.439- 122 0.99 125 1.03
 357  0.500  0.332  0.591- 123 0.99 126 1.03
 358  0.500  0.332  0.230-  73 1.00  76 1.00
 359  0.500  0.331  0.382-  74 1.01  77 1.01
 360  0.500  0.331  0.535-  75 1.01  78 1.01
 361  0.171  0.500  0.210- 157 0.98 160 1.03
 362  0.168  0.500  0.362- 158 0.99 161 1.03
 363  0.168  0.500  0.515- 159 0.99 162 1.03
 364  0.169  0.500  0.306- 154 1.01 127 1.01
 365  0.169  0.500  0.458- 155 1.01 128 1.01
 366  0.171  0.500  0.610- 156 1.01 129 1.01
 367  0.329  0.829  0.210- 163 0.98 166 1.03
 368  0.332  0.832  0.362- 164 0.99 167 1.03
 369  0.332  0.832  0.515- 165 0.99 168 1.03
 370  0.331  0.831  0.306- 130 1.01 151 1.01
 371  0.331  0.831  0.458- 131 1.01 152 1.01
 372  0.329  0.829  0.610- 132 1.01 153 1.01
 373  1.000  0.671  0.210- 169 0.98 172 1.03
 374  1.000  0.668  0.362- 170 0.99 173 1.03
 375  1.000  0.668  0.515- 171 0.99 174 1.03
 376  0.000  0.669  0.306- 148 1.01 271 1.01
 377  0.000  0.669  0.458- 149 1.01 272 1.01
 378  0.000  0.671  0.610- 150 1.01 273 1.01
 379  0.332  0.500  0.286- 175 0.99 178 1.03
 380  0.332  0.500  0.439- 176 0.99 179 1.03
 381  0.332  0.500  0.591- 177 0.99 180 1.03
 382  0.332  0.500  0.230- 133 1.00 145 1.00
 383  0.331  0.500  0.382- 134 1.01 146 1.01
 384  0.331  0.500  0.535- 135 1.01 147 1.01
 385  0.168  0.668  0.286- 181 0.99 184 1.03
 386  0.168  0.668  0.439- 182 0.99 185 1.03
 387  0.168  0.668  0.591- 183 0.99 186 1.03
 388  0.168  0.668  0.230- 136 1.00 142 1.00
 389  0.169  0.669  0.382- 137 1.01 143 1.01
 390  0.169  0.669  0.535- 138 1.01 144 1.01
 391  0.000  0.832  0.286- 187 0.99 190 1.03
 392  0.000  0.832  0.439- 188 0.99 191 1.03
 393  0.000  0.832  0.591- 189 0.99 192 1.03
 394  0.000  0.832  0.230- 274 1.00 139 1.00
 395  0.000  0.831  0.382- 275 1.01 140 1.01
 396  0.000  0.831  0.535- 276 1.01 141 1.01
 397  0.671  0.500  0.210- 229 0.98 232 1.03
 398  0.668  0.500  0.362- 230 0.99 233 1.03
 399  0.668  0.500  0.515- 231 0.99 234 1.03
 400  0.669  0.500  0.306- 193 1.01 226 1.01
 401  0.669  0.500  0.458- 194 1.01 227 1.01
 402  0.671  0.500  0.610- 195 1.01 228 1.01
 403  0.829  0.829  0.210- 235 0.98 238 1.03
 404  0.832  0.832  0.362- 236 0.99 239 1.03
 405  0.832  0.832  0.515- 237 0.99 240 1.03
 406  0.831  0.831  0.306- 196 1.01 223 1.01
 407  0.831  0.831  0.458- 197 1.01 224 1.01
 408  0.829  0.829  0.610- 198 1.01 225 1.01
 409  0.500  0.671  0.210- 241 0.98 244 1.03
 410  0.500  0.668  0.362- 242 0.99 245 1.03
 411  0.500  0.668  0.515- 243 0.99 246 1.03
 412  0.500  0.669  0.306- 199 1.01 220 1.01
 413  0.500  0.669  0.458- 200 1.01 221 1.01
 414  0.500  0.671  0.610- 201 1.01 222 1.01
 415  0.832  0.500  0.286- 247 0.99 250 1.03
 416  0.832  0.500  0.439- 248 0.99 251 1.03
 417  0.832  0.500  0.591- 249 0.99 252 1.03
 418  0.832  0.500  0.230- 202 1.00 217 1.00
 419  0.831  0.500  0.382- 203 1.01 218 1.01
 420  0.831  0.500  0.535- 204 1.01 219 1.01
 421  0.668  0.668  0.286- 253 0.99 256 1.03
 422  0.668  0.668  0.439- 254 0.99 257 1.03
 423  0.668  0.668  0.591- 255 0.99 258 1.03
 424  0.668  0.668  0.230- 205 1.00 214 1.00
 425  0.669  0.669  0.382- 206 1.01 215 1.01
 426  0.669  0.669  0.535- 207 1.01 216 1.01
 427  0.500  0.832  0.286- 259 0.99 262 1.03
 428  0.500  0.832  0.439- 260 0.99 263 1.03
 429  0.500  0.832  0.591- 261 0.99 264 1.03
 430  0.500  0.832  0.230- 211 1.00 208 1.00
 431  0.500  0.831  0.382- 212 1.01 209 1.01
 432  0.500  0.831  0.535- 213 1.01 210 1.01
 
  LATTYP: Found a hexagonal cell.
 ALAT       =    14.6976995468
 C/A-ratio  =     3.3474899354
  
  Lattice vectors:
  
 A1 = (  14.6976995468,   0.0000000000,   0.0000000000)
 A2 = (  -7.3488497734,  12.7285811847,   0.0000000000)
 A3 = (   0.0000000000,   0.0000000000,  49.2004013062)


Analysis of symmetry for initial positions (statically):
=====================================================================
 Subroutine PRICEL returns following result:
 
  LATTYP: Found a hexagonal cell.
 ALAT       =     7.3488496637
 C/A-ratio  =     6.6949799707
  
  Lattice vectors:
  
 A1 = (   7.3488497729,   0.0000000000,   0.0000000000)
 A2 = (  -3.6744247772,   6.3642904027,   0.0000000000)
 A3 = (   0.0000000000,   0.0000000000,  49.2004013062)
 
   4 primitive cells build up your supercell.
 

 Routine SETGRP: Setting up the symmetry group for a 
 hexagonal supercell.


 Subroutine GETGRP returns: Found  6 space group operations
 (whereof  6 operations were pure point group operations)
 out of a pool of 24 trial point group operations.


The static configuration has the point symmetry C_3v.


Analysis of symmetry for dynamics (positions and initial velocities):
=====================================================================
 Subroutine PRICEL returns following result:
 
  LATTYP: Found a hexagonal cell.
 ALAT       =     7.3488496637
 C/A-ratio  =     6.6949799707
  
  Lattice vectors:
  
 A1 = (   7.3488497729,   0.0000000000,   0.0000000000)
 A2 = (  -3.6744247772,   6.3642904027,   0.0000000000)
 A3 = (   0.0000000000,   0.0000000000,  49.2004013062)
 
   4 primitive cells build up your supercell.
 

 Routine SETGRP: Setting up the symmetry group for a 
 hexagonal supercell.


 Subroutine GETGRP returns: Found  6 space group operations
 (whereof  6 operations were pure point group operations)
 out of a pool of 24 trial point group operations.


The dynamic configuration has the point symmetry C_3v.


 Subroutine INISYM returns: Found  6 space group operations
 (whereof  6 operations are pure point group operations),
 and found     4 'primitive' translations

 
 
 KPOINTS: automatic mesh                          

Automatic generation of k-mesh.
Space group operators:
 irot       det(A)        alpha          n_x          n_y          n_z        tau_x        tau_y        tau_z
    1     1.000000     0.000000     1.000000     0.000000     0.000000     0.000000     0.000000     0.000000
    2     1.000000   120.000000     0.000000     0.000000    -1.000000     0.000000     0.000000     0.000000
    3     1.000000   120.000000     0.000000     0.000000     1.000000     0.000000     0.000000     0.000000
    4    -1.000000   180.000000     0.866025    -0.500000     0.000000     0.000000     0.000000     0.000000
    5    -1.000000   180.000000     0.000000     1.000000     0.000000     0.000000     0.000000     0.000000
    6    -1.000000   180.000000     0.866025     0.500000     0.000000     0.000000     0.000000     0.000000
 
 Subroutine IBZKPT returns following result:
 ===========================================
 
 Found      1 irreducible k-points:
 
 Following reciprocal coordinates:
            Coordinates               Weight
  0.000000  0.000000  0.000000      1.000000
 
 Following cartesian coordinates:
            Coordinates               Weight
  0.000000  0.000000  0.000000      1.000000
 


--------------------------------------------------------------------------------------------------------




 Dimension of arrays:
   k-points           NKPTS =      1   k-points in BZ     NKDIM =      1   number of bands    NBANDS=    794
   number of dos      NEDOS =    301   number of ions     NIONS =    432
   non local maximal  LDIM  =      4   non local SUM 2l+1 LMDIM =      8
   total plane-waves  NPLWV = ******
   max r-space proj   IRMAX =   1601   max aug-charges    IRDMAX=   2026
   dimension x,y,z NGX =    72 NGY =   72 NGZ =  250
   dimension x,y,z NGXF=   144 NGYF=  144 NGZF=  500
   support grid    NGXF=   144 NGYF=  144 NGZF=  500
   ions per type =             288 144
   NGX,Y,Z   is equivalent  to a cutoff of   8.14,  8.14,  8.45 a.u.
   NGXF,Y,Z  is equivalent  to a cutoff of  16.29, 16.29, 16.89 a.u.

 SYSTEM =  ice                                     
 POSCAR =  bilayer_5                               

 Startparameter for this run:
   NWRITE =      0    write-flag & timer
   PREC   = normal    normal or accurate (medium, high low for compatibility)
   ISTART =      0    job   : 0-new  1-cont  2-samecut
   ICHARG =      1    charge: 1-file 2-atom 10-const
   ISPIN  =      1    spin polarized calculation?
   LNONCOLLINEAR =      F non collinear calculations
   LSORBIT =      F    spin-orbit coupling
   INIWAV =      1    electr: 0-lowe 1-rand  2-diag
   LASPH  =      F    aspherical Exc in radial PAW
   METAGGA=      F    non-selfconsistent MetaGGA calc.

 Electronic Relaxation 1
   ENCUT  =  400.0 eV  29.40 Ry    5.42 a.u.  23.97 23.97 80.23*2*pi/ulx,y,z
   ENINI  =  400.0     initial cutoff
   ENAUG  =  605.4 eV  augmentation charge cutoff
   NELM   =    500;   NELMIN=  4; NELMDL=  0     # of ELM steps 
   EDIFF  = 0.1E-05   stopping-criterion for ELM
   LREAL  =      T    real-space projection
   NLSPLINE    = F    spline interpolate recip. space projectors
   LCOMPAT=      F    compatible to vasp.4.4
   GGA_COMPAT  = T    GGA compatible to vasp.4.4-vasp.4.6
   LMAXPAW     = -100 max onsite density
   LMAXMIX     =    2 max onsite mixed and CHGCAR
   VOSKOWN=      0    Vosko Wilk Nusair interpolation
   ROPT   =   -0.00050  -0.00050
 Ionic relaxation
   EDIFFG = 0.1E-04   stopping-criterion for IOM
   NSW    =      0    number of steps for IOM
   NBLOCK =      1;   KBLOCK =      1    inner block; outer block 
   IBRION =     -1    ionic relax: 0-MD 1-quasi-New 2-CG
   NFREE  =      0    steps in history (QN), initial steepest desc. (CG)
   ISIF   =      2    stress and relaxation
   IWAVPR =     10    prediction:  0-non 1-charg 2-wave 3-comb
   ISYM   =      2    0-nonsym 1-usesym 2-fastsym
   LCORR  =      T    Harris-Foulkes like correction to forces

   POTIM  = 0.5000    time-step for ionic-motion
   TEIN   =    0.0    initial temperature
   TEBEG  =    0.0;   TEEND  =   0.0 temperature during run
   SMASS  =  -3.00    Nose mass-parameter (am)
   estimated Nose-frequenzy (Omega)   =  0.10E-29 period in steps =****** mass=  -0.494E-26a.u.
   SCALEE = 1.0000    scale energy and forces
   NPACO  =    256;   APACO  = 16.0  distance and # of slots for P.C.
   PSTRESS=    0.0 pullay stress

  Mass of Ions in am
   POMASS =   1.00 16.00
  Ionic Valenz
   ZVAL   =   1.00  6.00
  Atomic Wigner-Seitz radii
   RWIGS  =  -1.00 -1.00
  virtual crystal weights 
   VCA    =   1.00  1.00
   NELECT =    1152.0000    total number of electrons
   NUPDOWN=      -1.0000    fix difference up-down

 DOS related values:
   EMIN   =  10.00;   EMAX   =-10.00  energy-range for DOS
   EFERMI =   0.00
   ISMEAR =    -1;   SIGMA  =   0.05  broadening in eV -4-tet -1-fermi 0-gaus

 Electronic relaxation 2 (details)
   IALGO  =     68    algorithm
   LDIAG  =      T    sub-space diagonalisation (order eigenvalues)
   LSUBROT=      F    optimize rotation matrix (better conditioning)
   TURBO    =      0    0=normal 1=particle mesh
   IRESTART =      0    0=no restart 2=restart with 2 vectors
   NREBOOT  =      0    no. of reboots
   NMIN     =      0    reboot dimension
   EREF     =   0.00    reference energy to select bands
   IMIX   =      4    mixing-type and parameters
     AMIX     =   0.40;   BMIX     =  1.00
     AMIX_MAG =   1.60;   BMIX_MAG =  1.00
     AMIN     =   0.10
     WC   =   100.;   INIMIX=   1;  MIXPRE=   1;  MAXMIX=  40

 Intra band minimization:
   WEIMIN = 0.0000     energy-eigenvalue tresh-hold
   EBREAK =  0.31E-09  absolut break condition
   DEPER  =   0.30     relativ break condition  

   TIME   =   0.40     timestep for ELM

  volume/ion in A,a.u.               =      21.31       143.78
  Fermi-wavevector in a.u.,A,eV,Ry     =   0.818891  1.547480  9.123838  0.670583
  Thomas-Fermi vector in A             =   1.929599
 
 Write flags
   LWAVE        =      F    write WAVECAR
   LDOWNSAMPLE  =      F    k-point downsampling of WAVECAR
   LCHARG       =      T    write CHGCAR
   LVTOT        =      F    write LOCPOT, total local potential
   LVHAR        =      T    write LOCPOT, Hartree potential only
   LELF         =      F    write electronic localiz. function (ELF)
   LORBIT       =     11    0 simple, 1 ext, 2 COOP (PROOUT), +10 PAW based schemes


 Dipole corrections
   LMONO  =      F    monopole corrections only (constant potential shift)
   LDIPOL =      T    correct potential (dipole corrections)
   IDIPOL =      3    1-x, 2-y, 3-z, 4-all directions 
   EPSILON=  1.0000000 bulk dielectric constant

 Exchange correlation treatment:
   GGA     =    --    GGA type
   LEXCH   =     8    internal setting for exchange type
   VOSKOWN=      0    Vosko Wilk Nusair interpolation
   LHFCALC =     F    Hartree Fock is set to
   LHFONE  =     F    Hartree Fock one center treatment
   AEXX    =    0.0000 exact exchange contribution

 Linear response parameters
   LEPSILON=     F    determine dielectric tensor
   LRPA    =     F    only Hartree local field effects (RPA)
   LNABLA  =     F    use nabla operator in PAW spheres
   LVEL    =     F    velocity operator in full k-point grid
   LINTERFAST=   F  fast interpolation
   KINTER  =     0    interpolate to denser k-point grid
   CSHIFT  =0.1000    complex shift for real part using Kramers Kronig
   OMEGAMAX=  -1.0    maximum frequency
   DEG_THRESHOLD= 0.2000000E-02 threshold for treating states as degnerate
   RTIME   =   -0.100 relaxation time in fs
  (WPLASMAI=    0.000 imaginary part of plasma frequency in eV, 0.658/RTIME)
   DFIELD  = 0.0000000 0.0000000 0.0000000 field for delta impulse in time
 
 Orbital magnetization related:
   ORBITALMAG=     F  switch on orbital magnetization
   LCHIMAG   =     F  perturbation theory with respect to B field
   DQ        =  0.001000  dq finite difference perturbation B field
   LLRAUG    =     F  two centre corrections for induced B field



--------------------------------------------------------------------------------------------------------


 Static calculation
 charge density and potential will be updated during run
 non-spin polarized calculation
 RMM-DIIS sequential band-by-band and
  variant of blocked Davidson during initial phase
 perform sub-space diagonalisation
    before iterative eigenvector-optimisation
 modified Broyden-mixing scheme, WC =      100.0
 initial mixing is a Kerker type mixing with AMIX =  0.4000 and BMIX =      1.0000
 Hartree-type preconditioning will be used
 using additional bands          218
 real space projection scheme for non local part
 use partial core corrections
 calculate Harris-corrections to forces 
   (improved forces if not selfconsistent)
 use gradient corrections 
 use of overlap-Matrix (Vanderbilt PP)
 Fermi-smearing in eV        SIGMA  =   0.05


--------------------------------------------------------------------------------------------------------


  energy-cutoff  :      400.00
  volume of cell :     9204.45
      direct lattice vectors                 reciprocal lattice vectors
    14.697699547  0.000000000  0.000000000     0.068037858  0.039281676  0.000000000
    -7.348849773 12.728581185  0.000000000     0.000000000  0.078563352  0.000000000
     0.000000000  0.000000000 49.200401306     0.000000000  0.000000000  0.020325037

  length of vectors
    14.697699547 14.697699547 49.200401306     0.078563352  0.078563352  0.020325037


 
 k-points in units of 2pi/SCALE and weight: automatic mesh                          
   0.00000000  0.00000000  0.00000000       1.000
 
 k-points in reciprocal lattice and weights: automatic mesh                          
   0.00000000  0.00000000  0.00000000       1.000
 
 position of ions in fractional coordinates (direct lattice) 
   0.16723125  0.06321327  0.29903593
   0.16711299  0.06322481  0.45122803
   0.16703026  0.06340959  0.60419581
   0.39598202  0.33276877  0.29903593
   0.39611182  0.33288703  0.45122803
   0.39637933  0.33296976  0.60419581
   0.10388569  0.16694137  0.22239956
   0.10373789  0.16698554  0.37510281
   0.10377676  0.16696334  0.52754785
   0.06305568  0.39611431  0.22239956
   0.06324765  0.39626212  0.37510281
   0.06318658  0.39622325  0.52754785
   0.16694136  0.10388569  0.22239956
   0.16698553  0.10373789  0.37510281
   0.16696332  0.10377676  0.52754785
   0.39611428  0.06305568  0.22239956
   0.39626209  0.06324765  0.37510281
   0.39622322  0.06318658  0.52754785
   0.06321328  0.16723126  0.29903593
   0.06322482  0.16711300  0.45122803
   0.06340960  0.16703027  0.60419581
   0.33276877  0.39598202  0.29903593
   0.33288703  0.39611182  0.45122803
   0.33296976  0.39637933  0.60419581
   0.17587007  0.00000000  0.18966681
   0.17129902  0.00000000  0.34233040
   0.17132205  0.00000000  0.49460501
   0.23667688  0.00000000  0.21704354
   0.23390532  0.00000000  0.36969512
   0.23379357  0.00000000  0.52200019
   0.32412992  0.32412992  0.18966681
   0.32870096  0.32870096  0.34233040
   0.32867793  0.32867793  0.49460501
   0.26332313  0.26332313  0.21704354
   0.26609470  0.26609470  0.36969512
   0.26620644  0.26620644  0.52200019
   1.00000000  0.17587007  0.18966681
   1.00000000  0.17129902  0.34233040
   1.00000000  0.17132205  0.49460501
   1.00000000  0.23667688  0.21704354
   1.00000000  0.23390532  0.36969512
   1.00000000  0.23379357  0.52200019
   0.32944866  0.00000000  0.26631049
   0.32904288  0.00000000  0.41844714
   0.32932910  0.00000000  0.57098881
   0.26630388  0.00000000  0.29357600
   0.26626031  0.00000000  0.44578140
   0.26622828  0.00000000  0.59852468
   0.17055131  0.17055133  0.26631049
   0.17095710  0.17095711  0.41844714
   0.17067087  0.17067089  0.57098881
   0.23369612  0.23369612  0.29357600
   0.23373969  0.23373969  0.44578140
   0.23377172  0.23377172  0.59852468
   1.00000000  0.32944866  0.26631049
   1.00000000  0.32904288  0.41844714
   1.00000000  0.32932910  0.57098881
   0.00000000  0.26630388  0.29357600
   0.00000000  0.26626031  0.44578140
   0.00000000  0.26622828  0.59852468
   0.66723123  0.06321327  0.29903593
   0.66711297  0.06322481  0.45122803
   0.66703024  0.06340959  0.60419581
   0.89598202  0.33276877  0.29903593
   0.89611182  0.33288703  0.45122803
   0.89637933  0.33296976  0.60419581
   0.43678674  0.10401798  0.29903593
   0.43677521  0.10388819  0.45122803
   0.43659042  0.10362067  0.60419581
   0.60388563  0.16694137  0.22239956
   0.60373782  0.16698554  0.37510281
   0.60377669  0.16696334  0.52754785
   0.56305562  0.39611431  0.22239956
   0.56324760  0.39626212  0.37510281
   0.56318652  0.39622325  0.52754785
   0.43694435  0.33305866  0.22239956
   0.43675237  0.33301449  0.37510281
   0.43681345  0.33303669  0.52754785
   0.66694137  0.10388569  0.22239956
   0.66698554  0.10373789  0.37510281
   0.66696334  0.10377676  0.52754785
   0.89611431  0.06305568  0.22239956
   0.89626212  0.06324765  0.37510281
   0.89622325  0.06318658  0.52754785
   0.56321326  0.16723126  0.29903593
   0.56322479  0.16711300  0.45122803
   0.56340958  0.16703027  0.60419581
   0.83276871  0.39598202  0.29903593
   0.83288697  0.39611182  0.45122803
   0.83296970  0.39637933  0.60419581
   0.67587005  0.00000000  0.18966681
   0.67129901  0.00000000  0.34233040
   0.67132204  0.00000000  0.49460501
   0.73667693  0.00000000  0.21704354
   0.73390536  0.00000000  0.36969512
   0.73379362  0.00000000  0.52200019
   0.82412989  0.32412992  0.18966681
   0.82870093  0.32870096  0.34233040
   0.82867790  0.32867793  0.49460501
   0.76332313  0.26332313  0.21704354
   0.76609470  0.26609470  0.36969512
   0.76620644  0.26620644  0.52200019
   0.50000000  0.17587007  0.18966681
   0.50000000  0.17129902  0.34233040
   0.50000000  0.17132205  0.49460501
   0.50000000  0.23667688  0.21704354
   0.50000000  0.23390532  0.36969512
   0.50000000  0.23379357  0.52200019
   0.82944866  0.00000000  0.26631049
   0.82904288  0.00000000  0.41844714
   0.82932910  0.00000000  0.57098881
   0.76630388  0.00000000  0.29357600
   0.76626031  0.00000000  0.44578140
   0.76622828  0.00000000  0.59852468
   0.67055128  0.17055133  0.26631049
   0.67095707  0.17095711  0.41844714
   0.67067084  0.17067089  0.57098881
   0.73369612  0.23369612  0.29357600
   0.73373969  0.23373969  0.44578140
   0.73377172  0.23377172  0.59852468
   0.50000000  0.32944866  0.26631049
   0.50000000  0.32904288  0.41844714
   0.50000000  0.32932910  0.57098881
   0.50000000  0.26630388  0.29357600
   0.50000000  0.26626031  0.44578140
   0.50000000  0.26622828  0.59852468
   0.16723126  0.56321332  0.29903593
   0.16711300  0.56322485  0.45122803
   0.16703027  0.56340964  0.60419581
   0.39598205  0.83276877  0.29903593
   0.39611185  0.83288703  0.45122803
   0.39637936  0.83296976  0.60419581
   0.33305863  0.43694432  0.22239956
   0.33301446  0.43675234  0.37510281
   0.33303666  0.43681342  0.52754785
   0.10388571  0.66694137  0.22239956
   0.10373790  0.66698554  0.37510281
   0.10377678  0.66696334  0.52754785
   0.06305569  0.89611437  0.22239956
   0.06324767  0.89626218  0.37510281
   0.06318659  0.89622331  0.52754785
   0.16694138  0.60388569  0.22239956
   0.16698556  0.60373788  0.37510281
   0.16696335  0.60377675  0.52754785
   0.39611434  0.56305568  0.22239956
   0.39626215  0.56324766  0.37510281
   0.39622328  0.56318658  0.52754785
   0.06321329  0.66723129  0.29903593
   0.06322482  0.66711303  0.45122803
   0.06340961  0.66703030  0.60419581
   0.33276877  0.89598208  0.29903593
   0.33288703  0.89611188  0.45122803
   0.33296976  0.89637939  0.60419581
   0.10401797  0.43678671  0.29903593
   0.10388817  0.43677518  0.45122803
   0.10362066  0.43659039  0.60419581
   0.17587007  0.50000000  0.18966681
   0.17129902  0.50000000  0.34233040
   0.17132205  0.50000000  0.49460501
   0.23667688  0.50000000  0.21704354
   0.23390532  0.50000000  0.36969512
   0.23379357  0.50000000  0.52200019
   0.32412995  0.82412995  0.18966681
   0.32870099  0.82870099  0.34233040
   0.32867796  0.82867796  0.49460501
   0.26332313  0.76332313  0.21704354
   0.26609470  0.76609470  0.36969512
   0.26620644  0.76620644  0.52200019
   1.00000000  0.67587011  0.18966681
   1.00000000  0.67129907  0.34233040
   1.00000000  0.67132210  0.49460501
   1.00000000  0.73667693  0.21704354
   1.00000000  0.73390536  0.36969512
   1.00000000  0.73379361  0.52200019
   0.32944869  0.50000000  0.26631049
   0.32904290  0.50000000  0.41844714
   0.32932913  0.50000000  0.57098881
   0.26630391  0.50000000  0.29357600
   0.26626034  0.50000000  0.44578140
   0.26622831  0.50000000  0.59852468
   0.17055134  0.67055134  0.26631049
   0.17095712  0.67095712  0.41844714
   0.17067090  0.67067090  0.57098881
   0.23369612  0.73369617  0.29357600
   0.23373969  0.73373975  0.44578140
   0.23377172  0.73377178  0.59852468
   0.00000000  0.82944872  0.26631049
   0.00000000  0.82904293  0.41844714
   0.00000000  0.82932916  0.57098881
   1.00000000  0.76630388  0.29357600
   1.00000000  0.76626031  0.44578140
   1.00000000  0.76622828  0.59852468
   0.66723129  0.56321332  0.29903593
   0.66711303  0.56322485  0.45122803
   0.66703030  0.56340964  0.60419581
   0.89598202  0.83276877  0.29903593
   0.89611182  0.83288703  0.45122803
   0.89637933  0.83296976  0.60419581
   0.43678677  0.60401798  0.29903593
   0.43677524  0.60388818  0.45122803
   0.43659045  0.60362067  0.60419581
   0.83305863  0.43694432  0.22239956
   0.83301446  0.43675234  0.37510281
   0.83303666  0.43681342  0.52754785
   0.60388569  0.66694137  0.22239956
   0.60373788  0.66698554  0.37510281
   0.60377675  0.66696334  0.52754785
   0.56305568  0.89611437  0.22239956
   0.56324766  0.89626218  0.37510281
   0.56318658  0.89622331  0.52754785
   0.43694438  0.83305869  0.22239956
   0.43675240  0.83301452  0.37510281
   0.43681348  0.83303672  0.52754785
   0.66694137  0.60388569  0.22239956
   0.66698554  0.60373788  0.37510281
   0.66696334  0.60377675  0.52754785
   0.89611437  0.56305568  0.22239956
   0.89626218  0.56324766  0.37510281
   0.89622331  0.56318658  0.52754785
   0.56321332  0.66723129  0.29903593
   0.56322485  0.66711303  0.45122803
   0.56340964  0.66703030  0.60419581
   0.83276877  0.89598208  0.29903593
   0.83288703  0.89611188  0.45122803
   0.83296976  0.89637939  0.60419581
   0.60401792  0.43678671  0.29903593
   0.60388812  0.43677518  0.45122803
   0.60362061  0.43659039  0.60419581
   0.67587005  0.50000000  0.18966681
   0.67129901  0.50000000  0.34233040
   0.67132204  0.50000000  0.49460501
   0.73667693  0.50000000  0.21704354
   0.73390536  0.50000000  0.36969512
   0.73379361  0.50000000  0.52200019
   0.82412995  0.82412995  0.18966681
   0.82870099  0.82870099  0.34233040
   0.82867796  0.82867796  0.49460501
   0.76332313  0.76332313  0.21704354
   0.76609470  0.76609470  0.36969512
   0.76620644  0.76620644  0.52200019
   0.50000000  0.67587011  0.18966681
   0.50000000  0.67129907  0.34233040
   0.50000000  0.67132210  0.49460501
   0.50000000  0.73667693  0.21704354
   0.50000000  0.73390536  0.36969512
   0.50000000  0.73379361  0.52200019
   0.82944866  0.50000000  0.26631049
   0.82904288  0.50000000  0.41844714
   0.82932910  0.50000000  0.57098881
   0.76630388  0.50000000  0.29357600
   0.76626031  0.50000000  0.44578140
   0.76622828  0.50000000  0.59852468
   0.67055134  0.67055134  0.26631049
   0.67095712  0.67095712  0.41844714
   0.67067090  0.67067090  0.57098881
   0.73369617  0.73369617  0.29357600
   0.73373975  0.73373975  0.44578140
   0.73377178  0.73377178  0.59852468
   0.50000000  0.82944872  0.26631049
   0.50000000  0.82904293  0.41844714
   0.50000000  0.82932916  0.57098881
   0.50000000  0.76630388  0.29357600
   0.50000000  0.76626031  0.44578140
   0.50000000  0.76622828  0.59852468
   0.93678668  0.10401798  0.29903593
   0.93677515  0.10388819  0.45122803
   0.93659036  0.10362067  0.60419581
   0.93694432  0.33305866  0.22239956
   0.93675234  0.33301449  0.37510281
   0.93681342  0.33303669  0.52754785
   0.93678674  0.60401798  0.29903593
   0.93677521  0.60388818  0.45122803
   0.93659042  0.60362067  0.60419581
   0.93694432  0.83305869  0.22239956
   0.93675234  0.83301452  0.37510281
   0.93681342  0.83303672  0.52754785
   0.33305866  0.93694432  0.22239956
   0.33301449  0.93675234  0.37510281
   0.33303669  0.93681342  0.52754785
   0.10401799  0.93678674  0.29903593
   0.10388820  0.93677521  0.45122803
   0.10362068  0.93659042  0.60419581
   0.83305863  0.93694432  0.22239956
   0.83301446  0.93675234  0.37510281
   0.83303666  0.93681342  0.52754785
   0.60401798  0.93678674  0.29903593
   0.60388818  0.93677521  0.45122803
   0.60362067  0.93659042  0.60419581
   0.17094273  0.00000000  0.20950963
   0.16844527  0.00000000  0.36245190
   0.16843856  0.00000000  0.51472552
   0.16915565  0.00000000  0.30610808
   0.16896106  0.00000000  0.45832026
   0.17066325  0.00000000  0.61027565
   0.32905726  0.32905726  0.20950963
   0.33155471  0.33155471  0.36245190
   0.33156143  0.33156143  0.51472552
   0.33084434  0.33084434  0.30610808
   0.33103893  0.33103893  0.45832026
   0.32933673  0.32933673  0.61027565
   0.00000000  0.17094273  0.20950963
   0.00000000  0.16844527  0.36245190
   0.00000000  0.16843856  0.51472552
   0.00000000  0.16915565  0.30610808
   0.00000000  0.16896106  0.45832026
   0.00000000  0.17066325  0.61027565
   0.33190823  0.00000000  0.28641568
   0.33176143  0.00000000  0.43857026
   0.33201598  0.00000000  0.59112712
   0.33206747  0.00000000  0.22985903
   0.33126237  0.00000000  0.38221639
   0.33131014  0.00000000  0.53470363
   0.16809178  0.16809178  0.28641568
   0.16823858  0.16823858  0.43857026
   0.16798404  0.16798404  0.59112712
   0.16793250  0.16793250  0.22985903
   0.16873760  0.16873760  0.38221639
   0.16868983  0.16868983  0.53470363
   1.00000000  0.33190820  0.28641568
   1.00000000  0.33176140  0.43857026
   1.00000000  0.33201595  0.59112712
   1.00000000  0.33206750  0.22985903
   1.00000000  0.33126240  0.38221639
   1.00000000  0.33131017  0.53470363
   0.67094274  0.00000000  0.20950963
   0.66844529  0.00000000  0.36245190
   0.66843857  0.00000000  0.51472552
   0.66915569  0.00000000  0.30610808
   0.66896110  0.00000000  0.45832026
   0.67066330  0.00000000  0.61027565
   0.82905726  0.32905726  0.20950963
   0.83155471  0.33155471  0.36245190
   0.83156143  0.33156143  0.51472552
   0.83084431  0.33084434  0.30610808
   0.83103890  0.33103893  0.45832026
   0.82933670  0.32933673  0.61027565
   0.50000000  0.17094273  0.20950963
   0.50000000  0.16844527  0.36245190
   0.50000000  0.16843856  0.51472552
   0.50000000  0.16915565  0.30610808
   0.50000000  0.16896106  0.45832026
   0.50000000  0.17066325  0.61027565
   0.83190817  0.00000000  0.28641568
   0.83176137  0.00000000  0.43857026
   0.83201592  0.00000000  0.59112712
   0.83206747  0.00000000  0.22985903
   0.83126237  0.00000000  0.38221639
   0.83131014  0.00000000  0.53470363
   0.66809177  0.16809178  0.28641568
   0.66823857  0.16823858  0.43857026
   0.66798402  0.16798404  0.59112712
   0.66793253  0.16793250  0.22985903
   0.66873763  0.16873760  0.38221639
   0.66868986  0.16868983  0.53470363
   0.50000000  0.33190820  0.28641568
   0.50000000  0.33176140  0.43857026
   0.50000000  0.33201595  0.59112712
   0.50000000  0.33206750  0.22985903
   0.50000000  0.33126240  0.38221639
   0.50000000  0.33131017  0.53470363
   0.17094273  0.50000000  0.20950963
   0.16844527  0.50000000  0.36245190
   0.16843856  0.50000000  0.51472552
   0.16915565  0.50000000  0.30610808
   0.16896106  0.50000000  0.45832026
   0.17066325  0.50000000  0.61027565
   0.32905731  0.82905731  0.20950963
   0.33155477  0.83155477  0.36245190
   0.33156149  0.83156149  0.51472552
   0.33084434  0.83084431  0.30610808
   0.33103893  0.83103890  0.45832026
   0.32933673  0.82933670  0.61027565
   1.00000000  0.67094274  0.20950963
   1.00000000  0.66844529  0.36245190
   1.00000000  0.66843857  0.51472552
   0.00000000  0.66915569  0.30610808
   0.00000000  0.66896110  0.45832026
   0.00000000  0.67066330  0.61027565
   0.33190823  0.50000000  0.28641568
   0.33176143  0.50000000  0.43857026
   0.33201598  0.50000000  0.59112712
   0.33206750  0.50000000  0.22985903
   0.33126240  0.50000000  0.38221639
   0.33131017  0.50000000  0.53470363
   0.16809180  0.66809183  0.28641568
   0.16823860  0.66823863  0.43857026
   0.16798405  0.66798408  0.59112712
   0.16793249  0.66793253  0.22985903
   0.16873758  0.66873763  0.38221639
   0.16868981  0.66868986  0.53470363
   0.00000000  0.83190823  0.28641568
   0.00000000  0.83176143  0.43857026
   0.00000000  0.83201598  0.59112712
   0.00000000  0.83206747  0.22985903
   0.00000000  0.83126237  0.38221639
   0.00000000  0.83131014  0.53470363
   0.67094269  0.50000000  0.20950963
   0.66844523  0.50000000  0.36245190
   0.66843851  0.50000000  0.51472552
   0.66915569  0.50000000  0.30610808
   0.66896110  0.50000000  0.45832026
   0.67066330  0.50000000  0.61027565
   0.82905726  0.82905731  0.20950963
   0.83155471  0.83155477  0.36245190
   0.83156143  0.83156149  0.51472552
   0.83084431  0.83084431  0.30610808
   0.83103890  0.83103890  0.45832026
   0.82933670  0.82933670  0.61027565
   0.50000000  0.67094274  0.20950963
   0.50000000  0.66844529  0.36245190
   0.50000000  0.66843857  0.51472552
   0.50000000  0.66915569  0.30610808
   0.50000000  0.66896110  0.45832026
   0.50000000  0.67066330  0.61027565
   0.83190817  0.50000000  0.28641568
   0.83176137  0.50000000  0.43857026
   0.83201592  0.50000000  0.59112712
   0.83206747  0.50000000  0.22985903
   0.83126237  0.50000000  0.38221639
   0.83131014  0.50000000  0.53470363
   0.66809177  0.66809183  0.28641568
   0.66823857  0.66823863  0.43857026
   0.66798402  0.66798408  0.59112712
   0.66793253  0.66793253  0.22985903
   0.66873763  0.66873763  0.38221639
   0.66868986  0.66868986  0.53470363
   0.50000006  0.83190823  0.28641568
   0.50000006  0.83176143  0.43857026
   0.50000006  0.83201598  0.59112712
   0.50000000  0.83206747  0.22985903
   0.50000000  0.83126237  0.38221639
   0.50000000  0.83131014  0.53470363
 
 position of ions in cartesian coordinates  (Angst):
   1.99336982  0.80461527 14.71268788
   1.99154690  0.80476211 22.20060011
   1.98897298  0.80711415 29.72667615
   3.37455713  4.23567424 14.71268788
   3.37559576  4.23717952 22.20060011
   3.37891964  4.23823258 29.72667615
   0.30005368  2.12492678 10.94214761
   0.29755665  2.12548904 18.45520902
   0.29829117  2.12520639 25.95556611
  -1.98421121  5.04197319 10.94214761
  -1.98247576  5.04385456 18.45520902
  -1.98308780  5.04335977 25.95556611
   1.69021352  1.32231750 10.94214761
   1.69194896  1.32043613 18.45520902
   1.69133692  1.32093092 25.95556611
   5.35858203  0.80260928 10.94214761
   5.35934362  0.80505290 18.45520902
   5.35922114  0.80427547 25.95556611
  -0.29986765  2.12861673 14.71268788
  -0.29882902  2.12711145 22.20060011
  -0.29550514  2.12605840 29.72667615
   1.98092293  5.04028932 14.71268788
   1.98170723  5.04194144 22.20060011
   1.98095726  5.04534654 29.72667615
   2.58488538  0.00000000  9.33168316
   2.51770158  0.00000000 16.84279294
   2.51804004  0.00000000 24.33476492
   3.47860574  0.00000000 10.67862903
   3.43787007  0.00000000 18.18914839
   3.43622765  0.00000000 25.68261869
   2.38198209  4.12571399  9.33168316
   2.41557399  4.18389688 16.84279294
   2.41540476  4.18360376 24.33476492
   1.93512213  3.35172984 10.67862903
   1.95548996  3.38700796 18.18914839
   1.95631117  3.38843034 25.68261869
  13.40525685  2.23857641  9.33168316
  13.43884876  2.18039353 16.84279294
  13.43867953  2.18068664 24.33476492
  12.95839668  3.01256094 10.67862903
  12.97876451  2.97728282 18.18914839
  12.97958572  2.97586044 25.68261869
   4.84213739  0.00000000 13.10258318
   4.83617332  0.00000000 20.58776722
   4.84038010  0.00000000 28.09287858
   3.91405449  0.00000000 14.44405718
   3.91341410  0.00000000 21.93262377
   3.91294323  0.00000000 29.44765423
   1.25335586  2.17087641 13.10258318
   1.25633790  2.17604145 20.58776722
   1.25423451  2.17239827 28.09287858
   1.71739764  2.97461997 14.44405718
   1.71771783  2.97517456 21.93262377
   1.71795327  2.97558235 29.44765423
  12.27663085  4.19341399 13.10258318
  12.27961289  4.18824895 20.58776722
  12.27750950  4.19189213 28.09287858
  -1.95702724  3.38967062 14.44405718
  -1.95670705  3.38911603 21.93262377
  -1.95647162  3.38870824 29.44765423
   9.34221938  0.80461527 14.71268788
   9.34039645  0.80476211 22.20060011
   9.33782254  0.80711415 29.72667615
  10.72340690  4.23567424 14.71268788
  10.72444553  4.23717952 22.20060011
  10.72776941  4.23823258 29.72667615
   5.65534776  1.32400136 14.71268788
   5.65613206  1.32234925 22.20060011
   5.65538209  1.31894415 29.72667615
   7.64890246  2.12492678 10.94214761
   7.64640543  2.12548904 18.45520902
   7.64713995  2.12520639 25.95556611
   5.36463780  5.04197319 10.94214761
   5.36637324  5.04385456 18.45520902
   5.36576120  5.04335977 25.95556611
   3.97447867  4.23936419 10.94214761
   3.97198164  4.23880194 18.45520902
   3.97271616  4.23908458 25.95556611
   9.03906351  1.32231750 10.94214761
   9.04079895  1.32043613 18.45520902
   9.04018691  1.32093092 25.95556611
  12.70743224  0.80260928 10.94214761
  12.70819383  0.80505290 18.45520902
  12.70807135  0.80427547 25.95556611
   7.04898180  2.12861673 14.71268788
   7.05002042  2.12711145 22.20060011
   7.05334431  2.12605840 29.72667615
   9.32977183  5.04028932 14.71268788
   9.33055613  5.04194144 22.20060011
   9.32980616  5.04534654 29.72667615
   9.93373494  0.00000000  9.33168316
   9.86655113  0.00000000 16.84279294
   9.86688960  0.00000000 24.33476492
  10.82745617  0.00000000 10.67862903
  10.78672051  0.00000000 18.18914839
  10.78507808  0.00000000 25.68261869
   9.73083142  4.12571399  9.33168316
   9.76442332  4.18389688 16.84279294
   9.76425409  4.18360376 24.33476492
   9.28397190  3.35172984 10.67862903
   9.30433973  3.38700796 18.18914839
   9.30516094  3.38843034 25.68261869
   6.05640708  2.23857641  9.33168316
   6.08999898  2.18039353 16.84279294
   6.08982975  2.18068664 24.33476492
   5.60954690  3.01256094 10.67862903
   5.62991474  2.97728282 18.18914839
   5.63073595  2.97586044 25.68261869
  12.19098717  0.00000000 13.10258318
  12.18502309  0.00000000 20.58776722
  12.18922987  0.00000000 28.09287858
  11.26290426  0.00000000 14.44405718
  11.26226388  0.00000000 21.93262377
  11.26179301  0.00000000 29.44765423
   8.60220520  2.17087641 13.10258318
   8.60518724  2.17604145 20.58776722
   8.60308384  2.17239827 28.09287858
   9.06624742  2.97461997 14.44405718
   9.06656761  2.97517456 21.93262377
   9.06680304  2.97558235 29.44765423
   4.92778108  4.19341399 13.10258318
   4.93076312  4.18824895 20.58776722
   4.92865972  4.19189213 28.09287858
   5.39182253  3.38967062 14.44405718
   5.39214272  3.38911603 21.93262377
   5.39237816  3.38870824 29.44765423
  -1.68105517  7.16890643 14.71268788
  -1.68287810  7.16905327 22.20060011
  -1.68545201  7.17140531 29.72667615
  -0.29986732 10.59996483 14.71268788
  -0.29882869 10.60147012 22.20060011
  -0.29550481 10.60252317 29.72667615
   1.68415753  5.56168121 10.94214761
   1.68491912  5.55923759 18.45520902
   1.68479664  5.56001503 25.95556611
  -3.37437099  8.48921737 10.94214761
  -3.37686802  8.48977963 18.45520902
  -3.37613350  8.48949698 25.95556611
  -5.65863631 11.40626454 10.94214761
  -5.65690087 11.40814591 18.45520902
  -5.65751291 11.40765112 25.95556611
  -1.98421088  7.68660800 10.94214761
  -1.98247544  7.68472663 18.45520902
  -1.98308748  7.68522142 25.95556611
   1.68415797  7.16689997 10.94214761
   1.68491956  7.16934359 18.45520902
   1.68479708  7.16856615 25.95556611
  -3.97429264  8.49290770 14.71268788
  -3.97325402  8.49140242 22.20060011
  -3.96993013  8.49034937 29.72667615
  -1.69350239 11.40458067 14.71268788
  -1.69271810 11.40623279 22.20060011
  -1.69346807 11.40963789 29.72667615
  -1.68105507  5.55967513 14.71268788
  -1.68287799  5.55952830 22.20060011
  -1.68545190  5.55717625 29.72667615
  -1.08953950  6.36429059  9.33168316
  -1.15672331  6.36429059 16.84279294
  -1.15638484  6.36429059 24.33476492
  -0.19581914  6.36429059 10.67862903
  -0.23655481  6.36429059 18.18914839
  -0.23819724  6.36429059 25.68261869
  -1.29244258 10.49000497  9.33168316
  -1.25885068 10.54818785 16.84279294
  -1.25901991 10.54789473 24.33476492
  -1.73930276  9.71602043 10.67862903
  -1.71893493  9.75129856 18.18914839
  -1.71811372  9.75272094 25.68261869
   9.73083164  8.60286757  9.33168316
   9.76442354  8.54468469 16.84279294
   9.76425431  8.54497781 24.33476492
   9.28397146  9.37685210 10.67862903
   9.30433929  9.34157398 18.18914839
   9.30516051  9.34015160 25.68261869
   1.16771294  6.36429059 13.10258318
   1.16174887  6.36429059 20.58776722
   1.16595565  6.36429059 28.09287858
   0.23963004  6.36429059 14.44405718
   0.23898966  6.36429059 21.93262377
   0.23851879  6.36429059 29.44765423
  -2.42106870  8.53516719 13.10258318
  -2.41808666  8.54033223 20.58776722
  -2.42019005  8.53668905 28.09287858
  -1.95702768  9.33891133 14.44405718
  -1.95670749  9.33946591 21.93262377
  -1.95647206  9.33987370 29.44765423
  -6.09549402 10.55770534 13.10258318
  -6.09251198 10.55254030 20.58776722
  -6.09461537 10.55618348 28.09287858
   9.06624742  9.75396121 14.44405718
   9.06656761  9.75340662 21.93262377
   9.06680304  9.75299884 29.44765423
   5.66779504  7.16890643 14.71268788
   5.66597211  7.16905327 22.20060011
   5.66339820  7.17140531 29.72667615
   7.04898202 10.59996483 14.71268788
   7.05002064 10.60147012 22.20060011
   7.05334453 10.60252317 29.72667615
   1.98092337  7.68829186 14.71268788
   1.98170767  7.68663974 22.20060011
   1.98095770  7.68323465 29.72667615
   9.03300730  5.56168121 10.94214761
   9.03376889  5.55923759 18.45520902
   9.03364641  5.56001503 25.95556611
   3.97447845  8.48921737 10.94214761
   3.97198142  8.48977963 18.45520902
   3.97271594  8.48949698 25.95556611
   1.69021335 11.40626454 10.94214761
   1.69194879 11.40814591 18.45520902
   1.69133675 11.40765112 25.95556611
   0.30005401 10.60365516 10.94214761
   0.29755697 10.60309291 18.45520902
   0.29829149 10.60337556 25.95556611
   5.36463868  7.68660800 10.94214761
   5.36637412  7.68472663 18.45520902
   5.36576208  7.68522142 25.95556611
   9.03300818  7.16689997 10.94214761
   9.03376977  7.16934359 18.45520902
   9.03364729  7.16856615 25.95556611
   3.37455757  8.49290770 14.71268788
   3.37559620  8.49140242 22.20060011
   3.37892008  8.49034937 29.72667615
   5.65534738 11.40458067 14.71268788
   5.65613168 11.40623279 22.20060011
   5.65538171 11.40963789 29.72667615
   5.66779394  5.55967513 14.71268788
   5.66597102  5.55952830 22.20060011
   5.66339710  5.55717625 29.72667615
   6.25931005  6.36429059  9.33168316
   6.19212625  6.36429059 16.84279294
   6.19246471  6.36429059 24.33476492
   7.15303129  6.36429059 10.67862903
   7.11229562  6.36429059 18.18914839
   7.11065320  6.36429059 25.68261869
   6.05640719 10.49000497  9.33168316
   6.08999909 10.54818785 16.84279294
   6.08982986 10.54789473 24.33476492
   5.60954701  9.71602043 10.67862903
   5.62991485  9.75129856 18.18914839
   5.63073606  9.75272094 25.68261869
   2.38198187  8.60286757  9.33168316
   2.41557377  8.54468469 16.84279294
   2.41540454  8.54497781 24.33476492
   1.93512169  9.37685210 10.67862903
   1.95548952  9.34157398 18.18914839
   1.95631073  9.34015160 25.68261869
   8.51656228  6.36429059 13.10258318
   8.51059820  6.36429059 20.58776722
   8.51480499  6.36429059 28.09287858
   7.58847937  6.36429059 14.44405718
   7.58783899  6.36429059 21.93262377
   7.58736812  6.36429059 29.44765423
   4.92778108  8.53516719 13.10258318
   4.93076312  8.54033223 20.58776722
   4.92865972  8.53668905 28.09287858
   5.39182297  9.33891133 14.44405718
   5.39214316  9.33946591 21.93262377
   5.39237859  9.33987370 29.44765423
   1.25335575 10.55770534 13.10258318
   1.25633779 10.55254030 20.58776722
   1.25423440 10.55618348 28.09287858
   1.71739764  9.75396121 14.44405718
   1.71771783  9.75340662 21.93262377
   1.71795327  9.75299884 29.44765423
  13.00419666  1.32400136 14.71268788
  13.00498096  1.32234925 22.20060011
  13.00423099  1.31894415 29.72667615
  11.32332801  4.23936419 10.94214761
  11.32083098  4.23880194 18.45520902
  11.32156550  4.23908458 25.95556611
   9.32977270  7.68829186 14.71268788
   9.33055700  7.68663974 22.20060011
   9.32980703  7.68323465 29.72667615
   7.64890290 10.60365516 10.94214761
   7.64640587 10.60309291 18.45520902
   7.64714039 10.60337556 25.95556611
  -1.99026692 11.92597181 10.94214761
  -1.98950533 11.92352819 18.45520902
  -1.98962781 11.92430562 25.95556611
  -5.35547984 11.92396610 14.71268788
  -5.35730277 11.92381927 22.20060011
  -5.35987668 11.92146723 29.72667615
   5.35858242 11.92597181 10.94214761
   5.35934401 11.92352819 18.45520902
   5.35922152 11.92430562 25.95556611
   1.99336971 11.92396610 14.71268788
   1.99154679 11.92381927 22.20060011
   1.98897288 11.92146723 29.72667615
   2.51246489  0.00000000 10.30795765
   2.47575801  0.00000000 17.83277871
   2.47565932  0.00000000 25.32470214
   2.48619887  0.00000000 15.06064025
   2.48333883  0.00000000 22.54954067
   2.50835723  0.00000000 30.02580713
   2.41819233  4.18843199 10.30795765
   2.43654577  4.22022107 17.83277871
   2.43659512  4.22030654 25.32470214
   2.43132534  4.21117902 15.06064025
   2.43275536  4.21365589 22.54954067
   2.42024616  4.19198932 30.02580713
  -1.25623244  2.17585842 10.30795765
  -1.23787901  2.14406933 17.83277871
  -1.23782966  2.14398386 25.32470214
  -1.24309944  2.15311138 15.06064025
  -1.24166941  2.15063451 22.54954067
  -1.25417861  2.17230108 30.02580713
   4.87828747  0.00000000 14.09176622
   4.87612985  0.00000000 21.57783291
   4.87987106  0.00000000 29.08369148
   4.88062789  0.00000000 11.30915676
   4.86879481  0.00000000 18.80519985
   4.86949690  0.00000000 26.30763341
   1.23528126  2.13956991 14.09176622
   1.23636007  2.14143846 21.57783291
   1.23448947  2.13819848 29.08369148
   1.23411072  2.13754247 11.30915676
   1.24002726  2.14779022 18.80519985
   1.23967622  2.14718219 26.30763341
  12.25855603  4.22472050 14.09176622
  12.25963484  4.22285194 21.57783291
  12.25776424  4.22609192 29.08369148
  12.25738538  4.22674812 11.30915676
  12.26330192  4.21650037 18.80519985
  12.26295088  4.21710840 26.30763341
   9.86131488  0.00000000 10.30795765
   9.82460801  0.00000000 17.83277871
   9.82450931  0.00000000 25.32470214
   9.83504930  0.00000000 15.06064025
   9.83218926  0.00000000 22.54954067
   9.85720766  0.00000000 30.02580713
   9.76704211  4.18843199 10.30795765
   9.78539554  4.22022107 17.83277871
   9.78544489  4.22030654 25.32470214
   9.78017468  4.21117902 15.06064025
   9.78160470  4.21365589 22.54954067
   9.76909550  4.19198932 30.02580713
   6.09261733  2.17585842 10.30795765
   6.11097077  2.14406933 17.83277871
   6.11102011  2.14398386 25.32470214
   6.10575034  2.15311138 15.06064025
   6.10718036  2.15063451 22.54954067
   6.09467116  2.17230108 30.02580713
  12.22713637  0.00000000 14.09176622
  12.22497875  0.00000000 21.57783291
  12.22871996  0.00000000 29.08369148
  12.22947766  0.00000000 11.30915676
  12.21764459  0.00000000 18.80519985
  12.21834668  0.00000000 26.30763341
   8.58413082  2.13956991 14.09176622
   8.58520963  2.14143846 21.57783291
   8.58333902  2.13819848 29.08369148
   8.58296093  2.13754247 11.30915676
   8.58887747  2.14779022 18.80519985
   8.58852643  2.14718219 26.30763341
   4.90970626  4.22472050 14.09176622
   4.91078507  4.22285194 21.57783291
   4.90891446  4.22609192 29.08369148
   4.90853561  4.22674812 11.30915676
   4.91445215  4.21650037 18.80519985
   4.91410110  4.21710840 26.30763341
  -1.16196000  6.36429059 10.30795765
  -1.19866687  6.36429059 17.83277871
  -1.19876557  6.36429059 25.32470214
  -1.18822601  6.36429059 15.06064025
  -1.19108606  6.36429059 22.54954067
  -1.16606766  6.36429059 30.02580713
  -1.25623211 10.55272334 10.30795765
  -1.23787868 10.58451242 17.83277871
  -1.23782933 10.58459789 25.32470214
  -1.24309933 10.57546923 15.06064025
  -1.24166930 10.57794610 22.54954067
  -1.25417850 10.55627953 30.02580713
   9.76704211  8.54014920 10.30795765
   9.78539554  8.50836012 17.83277871
   9.78544489  8.50827464 25.32470214
  -4.91752465  8.51740254 15.06064025
  -4.91609463  8.51492567 22.54954067
  -4.92860383  8.53659224 30.02580713
   1.20386258  6.36429059 14.09176622
   1.20170496  6.36429059 21.57783291
   1.20544617  6.36429059 29.08369148
   1.20620344  6.36429059 11.30915676
   1.19437037  6.36429059 18.80519985
   1.19507246  6.36429059 26.30763341
  -2.43914373  8.50386107 14.09176622
  -2.43806492  8.50572962 21.57783291
  -2.43993553  8.50248964 29.08369148
  -2.44031460  8.50183345 11.30915676
  -2.43439806  8.51208119 18.80519985
  -2.43474911  8.51147316 26.30763341
  -6.11356862 10.58901147 14.09176622
  -6.11248981 10.58714291 21.57783291
  -6.11436042 10.59038290 29.08369148
  -6.11473883 10.59103833 11.30915676
  -6.10882229 10.58079059 18.80519985
  -6.10917334 10.58139861 26.30763341
   6.18688912  6.36429059 10.30795765
   6.15018224  6.36429059 17.83277871
   6.15008355  6.36429059 25.32470214
   6.16062442  6.36429059 15.06064025
   6.15776437  6.36429059 22.54954067
   6.18278277  6.36429059 30.02580713
   6.09261678 10.55272334 10.30795765
   6.11097022 10.58451242 17.83277871
   6.11101957 10.58459789 25.32470214
   6.10575001 10.57546923 15.06064025
   6.10718003 10.57794610 22.54954067
   6.09467083 10.55627953 30.02580713
   2.41819233  8.54014920 10.30795765
   2.43654577  8.50836012 17.83277871
   2.43659512  8.50827464 25.32470214
   2.43132512  8.51740254 15.06064025
   2.43275514  8.51492567 22.54954067
   2.42024594  8.53659224 30.02580713
   8.55271148  6.36429059 14.09176622
   8.55055386  6.36429059 21.57783291
   8.55429507  6.36429059 29.08369148
   8.55505278  6.36429059 11.30915676
   8.54321970  6.36429059 18.80519985
   8.54392179  6.36429059 26.30763341
   4.90970560  8.50386107 14.09176622
   4.91078441  8.50572962 21.57783291
   4.90891381  8.50248964 29.08369148
   4.90853583  8.50183345 11.30915676
   4.91445237  8.51208119 18.80519985
   4.91410132  8.51147316 26.30763341
   1.23528203 10.58901147 14.09176622
   1.23636084 10.58714291 21.57783291
   1.23449023 10.59038290 29.08369148
   1.23411094 10.59103833 11.30915676
   1.24002748 10.58079059 18.80519985
   1.23967643 10.58139861 26.30763341
 


--------------------------------------------------------------------------------------------------------


 use parallel FFT for orbitals z direction half grid
 k-point  1 :   0.0000 0.0000 0.0000  plane waves:   83586

 maximum and minimum number of plane-waves per node :      4185     4175

 maximum number of plane-waves:     83586
 maximum index in each direction: 
   IXMAX=   23   IYMAX=   23   IZMAX=   80
   IXMIN=  -23   IYMIN=  -23   IZMIN=    0


 real space projection operators:
  total allocation   :      26544.75 KBytes
  max/ min on nodes  :       1511.00       1083.66


 parallel 3D FFT for wavefunctions:
    minimum data exchange during FFTs selected (reduces bandwidth)
 parallel 3D FFT for charge:
    minimum data exchange during FFTs selected (reduces bandwidth)


 total amount of memory used by VASP MPI-rank0    88898. kBytes
=======================================================================

   base      :      30000. kBytes
   nonlr-proj:       1822. kBytes
   fftplans  :      10983. kBytes
   grid      :      19058. kBytes
   one-center:         33. kBytes
   wavefun   :      27002. kBytes
 
     INWAV:  cpu time    0.0000: real time    0.0000
 Broyden mixing: mesh for mixing (old mesh)
   NGX = 47   NGY = 47   NGZ =161
  (NGX  =144   NGY  =144   NGZ  =500)
  gives a total of 355649 points

 initial charge density was supplied:
 charge density of overlapping atoms calculated
 number of electron    1152.0000000 magnetization 
 keeping initial charge density in first step


--------------------------------------------------------------------------------------------------------


 Maximum index for non-local projection operator          149
 Maximum index for augmentation-charges          165 (set IRDMAX)


--------------------------------------------------------------------------------------------------------


 First call to EWALD:  gamma=   0.085
 Maximum number of real-space cells 4x 4x 1
 Maximum number of reciprocal cells 2x 2x 6

    FEWALD:  cpu time    0.0213: real time    0.0214


--------------------------------------- Iteration      1(   1)  ---------------------------------------


    POTLOK:  cpu time    0.2112: real time    0.2155
    SETDIJ:  cpu time    0.0116: real time    0.0119
     EDDAV:  cpu time   10.7764: real time   10.8880
       DOS:  cpu time    0.0003: real time    0.0003
    --------------------------------------------
      LOOP:  cpu time   10.9996: real time   11.1157

 eigenvalue-minimisations  :  1812
 total energy-change (2. order) : 0.1026154E+05  (-0.4848139E+05)
 number of electron    1152.0000000 magnetization 
 augmentation part     1152.0000000 magnetization 

 DIPCOR: dipole corrections for dipol
 direction  3 min pos    -5,
 dipolmoment           0.000000      0.000000     -0.018597 electrons x Angstroem
 Tr[quadrupol]    -43138.755967

 energy correction for charged system         0.000000 eV
 dipol+quadrupol energy correction           -0.000003 eV
 added-field ion interaction         -1.643538 eV  (added to PSCEN)


 Free energy of the ion-electron system (eV)
  ---------------------------------------------------
  alpha Z        PSCENC =       503.55480830
  Ewald energy   TEWEN  =    759918.89232334
  -Hartree energ DENC   =   -814393.12542899
  -exchange      EXHF   =         0.00000000
  -V(xc)+E(xc)   XCENC  =      4725.39650201
  PAW double counting   =     50517.72457379   -50779.28995150
  entropy T*S    EENTRO =        -0.55218370
  eigenvalues    EBANDS =     -6070.81129881
  atomic energy  EATOM  =     65839.74643663
  Solvation  Ediel_sol  =         0.00000000
  ---------------------------------------------------
  free energy    TOTEN  =     10261.53578108 eV

  energy without entropy =    10262.08796478  energy(sigma->0) =    10261.81187293


--------------------------------------------------------------------------------------------------------




--------------------------------------- Iteration      1(   2)  ---------------------------------------


     EDDAV:  cpu time   12.0976: real time   12.2193
       DOS:  cpu time    0.0002: real time    0.0003
    --------------------------------------------
      LOOP:  cpu time   12.0978: real time   12.2195

 eigenvalue-minimisations  :  2094
 total energy-change (2. order) :-0.1065907E+05  (-0.1024737E+05)
 number of electron    1152.0000000 magnetization 
 augmentation part     1152.0000000 magnetization 

 DIPCOR: dipole corrections for dipol
 direction  3 min pos    -5,
 dipolmoment           0.000000      0.000000     -0.018597 electrons x Angstroem
 Tr[quadrupol]    -43138.755967

 energy correction for charged system         0.000000 eV
 dipol+quadrupol energy correction           -0.000003 eV
 added-field ion interaction         -1.643538 eV  (added to PSCEN)


 Free energy of the ion-electron system (eV)
  ---------------------------------------------------
  alpha Z        PSCENC =       503.55480830
  Ewald energy   TEWEN  =    759918.89232334
  -Hartree energ DENC   =   -814393.12542899
  -exchange      EXHF   =         0.00000000
  -V(xc)+E(xc)   XCENC  =      4725.39650201
  PAW double counting   =     50517.72457379   -50779.28995150
  entropy T*S    EENTRO =        -0.00000000
  eigenvalues    EBANDS =    -16730.42949775
  atomic energy  EATOM  =     65839.74643663
  Solvation  Ediel_sol  =         0.00000000
  ---------------------------------------------------
  free energy    TOTEN  =      -397.53023416 eV

  energy without entropy =     -397.53023416  energy(sigma->0) =     -397.53023416


--------------------------------------------------------------------------------------------------------




--------------------------------------- Iteration      1(   3)  ---------------------------------------


     EDDAV:  cpu time   11.2076: real time   11.3214
       DOS:  cpu time    0.0002: real time    0.0002
    --------------------------------------------
      LOOP:  cpu time   11.2078: real time   11.3216

 eigenvalue-minimisations  :  1904
 total energy-change (2. order) :-0.1878608E+04  (-0.1868780E+04)
 number of electron    1152.0000000 magnetization 
 augmentation part     1152.0000000 magnetization 

 DIPCOR: dipole corrections for dipol
 direction  3 min pos    -5,
 dipolmoment           0.000000      0.000000     -0.018597 electrons x Angstroem
 Tr[quadrupol]    -43138.755967

 energy correction for charged system         0.000000 eV
 dipol+quadrupol energy correction           -0.000003 eV
 added-field ion interaction         -1.643538 eV  (added to PSCEN)


 Free energy of the ion-electron system (eV)
  ---------------------------------------------------
  alpha Z        PSCENC =       503.55480830
  Ewald energy   TEWEN  =    759918.89232334
  -Hartree energ DENC   =   -814393.12542899
  -exchange      EXHF   =         0.00000000
  -V(xc)+E(xc)   XCENC  =      4725.39650201
  PAW double counting   =     50517.72457379   -50779.28995150
  entropy T*S    EENTRO =        -0.00000000
  eigenvalues    EBANDS =    -18609.03741544
  atomic energy  EATOM  =     65839.74643663
  Solvation  Ediel_sol  =         0.00000000
  ---------------------------------------------------
  free energy    TOTEN  =     -2276.13815185 eV

  energy without entropy =    -2276.13815185  energy(sigma->0) =    -2276.13815185


--------------------------------------------------------------------------------------------------------




--------------------------------------- Iteration      1(   4)  ---------------------------------------


     EDDAV:  cpu time   11.1670: real time   11.2803
       DOS:  cpu time    0.0003: real time    0.0003
    --------------------------------------------
      LOOP:  cpu time   11.1673: real time   11.2806

 eigenvalue-minimisations  :  1904
 total energy-change (2. order) :-0.5285945E+02  (-0.5271008E+02)
 number of electron    1152.0000000 magnetization 
 augmentation part     1152.0000000 magnetization 

 DIPCOR: dipole corrections for dipol
 direction  3 min pos    -5,
 dipolmoment           0.000000      0.000000     -0.018597 electrons x Angstroem
 Tr[quadrupol]    -43138.755967

 energy correction for charged system         0.000000 eV
 dipol+quadrupol energy correction           -0.000003 eV
 added-field ion interaction         -1.643538 eV  (added to PSCEN)


 Free energy of the ion-electron system (eV)
  ---------------------------------------------------
  alpha Z        PSCENC =       503.55480830
  Ewald energy   TEWEN  =    759918.89232334
  -Hartree energ DENC   =   -814393.12542899
  -exchange      EXHF   =         0.00000000
  -V(xc)+E(xc)   XCENC  =      4725.39650201
  PAW double counting   =     50517.72457379   -50779.28995150
  entropy T*S    EENTRO =        -0.00000000
  eigenvalues    EBANDS =    -18661.89686679
  atomic energy  EATOM  =     65839.74643663
  Solvation  Ediel_sol  =         0.00000000
  ---------------------------------------------------
  free energy    TOTEN  =     -2328.99760320 eV

  energy without entropy =    -2328.99760320  energy(sigma->0) =    -2328.99760320


--------------------------------------------------------------------------------------------------------




--------------------------------------- Iteration      1(   5)  ---------------------------------------


     EDDAV:  cpu time   11.2910: real time   11.4060
       DOS:  cpu time    0.0003: real time    0.0003
    CHARGE:  cpu time    0.4378: real time    0.4417
    MIXING:  cpu time    0.0061: real time    0.0067
    --------------------------------------------
      LOOP:  cpu time   11.7352: real time   11.8548

 eigenvalue-minimisations  :  1928
 total energy-change (2. order) :-0.1349220E+01  (-0.1348662E+01)
 number of electron    1152.0001657 magnetization 
 augmentation part      116.5359203 magnetization 

 DIPCOR: dipole corrections for dipol
 direction  3 min pos    -5,
 dipolmoment           0.000000      0.000000     -0.018597 electrons x Angstroem
 Tr[quadrupol]    -43138.755967

 energy correction for charged system         0.000000 eV
 dipol+quadrupol energy correction           -0.000003 eV
 added-field ion interaction         -1.643538 eV  (added to PSCEN)


 Broyden mixing:
  rms(total) = 0.83337E+01    rms(broyden)= 0.83190E+01
  rms(prec ) = 0.84464E+01
  weight for this iteration     100.00

 Free energy of the ion-electron system (eV)
  ---------------------------------------------------
  alpha Z        PSCENC =       503.55480830
  Ewald energy   TEWEN  =    759918.89232334
  -Hartree energ DENC   =   -814393.12542899
  -exchange      EXHF   =         0.00000000
  -V(xc)+E(xc)   XCENC  =      4725.39650201
  PAW double counting   =     50517.72457379   -50779.28995150
  entropy T*S    EENTRO =        -0.00000000
  eigenvalues    EBANDS =    -18663.24608658
  atomic energy  EATOM  =     65839.74643663
  Solvation  Ediel_sol  =         0.00000000
  ---------------------------------------------------
  free energy    TOTEN  =     -2330.34682299 eV

  energy without entropy =    -2330.34682299  energy(sigma->0) =    -2330.34682299


--------------------------------------------------------------------------------------------------------




--------------------------------------- Iteration      1(   6)  ---------------------------------------


    POTLOK:  cpu time    0.2038: real time    0.2057
    SETDIJ:  cpu time    0.0109: real time    0.0109
    EDDIAG:  cpu time    1.5812: real time    1.5982
  RMM-DIIS:  cpu time    7.5385: real time    7.6304
    ORTHCH:  cpu time    0.2579: real time    0.2609
       DOS:  cpu time    0.0003: real time    0.0003
    CHARGE:  cpu time    0.4360: real time    0.4393
    MIXING:  cpu time    0.0070: real time    0.0072
    --------------------------------------------
      LOOP:  cpu time   10.0354: real time   10.1529

 eigenvalue-minimisations  :  2381
 total energy-change (2. order) :-0.3978236E+05  (-0.6023306E+04)
 number of electron    1152.0001517 magnetization 
 augmentation part       72.3053876 magnetization 

 DIPCOR: dipole corrections for dipol
 direction  3 min pos   223,
 dipolmoment           0.000000      0.000000   -210.447226 electrons x Angstroem
 Tr[quadrupol]    -66640.623503

 energy correction for charged system         0.000000 eV
 dipol+quadrupol energy correction         -435.308958 eV
 added-field ion interaction       8817.019436 eV  (added to PSCEN)


 Broyden mixing:
  rms(total) = 0.26689E+02    rms(broyden)= 0.26673E+02
  rms(prec ) = 0.37519E+02
  weight for this iteration     100.00

 eigenvalues of (default mixing * dielectric matrix)
  average eigenvalue GAMMA=   0.1625
  0.1625

 Free energy of the ion-electron system (eV)
  ---------------------------------------------------
  alpha Z        PSCENC =      8886.90882740
  Ewald energy   TEWEN  =    759918.89232334
  -Hartree energ DENC   =   -817206.72802642
  -exchange      EXHF   =         0.00000000
  -V(xc)+E(xc)   XCENC  =      4885.42591882
  PAW double counting   =     63922.96643508   -64229.02392191
  entropy T*S    EENTRO =        -0.29395575
[...]


     LOOP+:  cpu time 5688.5045: real time 5755.6116
 vacuum level on the upper side and lower side of the slab       637.282       664.211
    4ORBIT:  cpu time    0.0000: real time    0.0000
 


 total charge     
 
# of ion       s       p       d       tot
------------------------------------------
    1        0.563   0.117   0.000   0.680
    2        0.517   0.117   0.000   0.634
    3        0.432   0.104   0.000   0.536
    4        0.563   0.117   0.000   0.680
    5        0.483   0.110   0.000   0.593
    6        0.513   0.122   0.000   0.635
    7        0.557   0.117   0.000   0.674
    8        0.569   0.119   0.000   0.688
    9        0.504   0.116   0.000   0.620
   10        0.557   0.117   0.000   0.674
   11        0.569   0.118   0.000   0.687
   12        0.484   0.112   0.000   0.596
   13        0.557   0.117   0.000   0.674
   14        0.570   0.118   0.000   0.688
   15        0.497   0.115   0.000   0.613
   16        0.557   0.117   0.000   0.674
   17        0.569   0.118   0.000   0.688
   18        0.495   0.114   0.000   0.610
   19        0.563   0.117   0.000   0.680
   20        0.541   0.122   0.000   0.663
   21        0.475   0.113   0.000   0.589
   22        0.563   0.117   0.000   0.680
   23        0.490   0.112   0.000   0.602
   24        0.515   0.122   0.000   0.637
   25        0.586   0.103   0.000   0.689
   26        0.574   0.122   0.000   0.697
   27        0.478   0.117   0.000   0.594
   28        0.553   0.108   0.000   0.661
   29        0.555   0.112   0.000   0.667
   30        0.478   0.105   0.000   0.583
   31        0.586   0.103   0.000   0.689
   32        0.575   0.122   0.000   0.697
   33        0.476   0.116   0.000   0.592
   34        0.553   0.108   0.000   0.661
   35        0.555   0.112   0.000   0.667
   36        0.476   0.104   0.000   0.580
   37        0.587   0.103   0.000   0.689
   38        0.575   0.122   0.000   0.697
   39        0.489   0.120   0.000   0.608
   40        0.553   0.108   0.000   0.661
   41        0.555   0.112   0.000   0.667
   42        0.490   0.106   0.000   0.596
   43        0.569   0.121   0.000   0.690
   44        0.585   0.126   0.000   0.711
   45        0.462   0.122   0.000   0.584
   46        0.553   0.108   0.000   0.660
   47        0.548   0.108   0.000   0.656
   48        0.443   0.104   0.000   0.547
   49        0.569   0.122   0.000   0.690
   50        0.583   0.126   0.000   0.709
   51        0.437   0.116   0.000   0.553
   52        0.553   0.108   0.000   0.660
   53        0.548   0.107   0.000   0.655
   54        0.425   0.101   0.000   0.526
   55        0.569   0.121   0.000   0.690
   56        0.585   0.126   0.000   0.711
   57        0.455   0.119   0.000   0.574
   58        0.553   0.108   0.000   0.660
   59        0.548   0.108   0.000   0.655
   60        0.434   0.103   0.000   0.537
   61        0.563   0.117   0.000   0.680
   62        0.539   0.122   0.000   0.661
   63        0.452   0.108   0.000   0.561
   64        0.563   0.117   0.000   0.680
   65        0.529   0.119   0.000   0.648
   66        0.466   0.112   0.000   0.578
   67        0.563   0.117   0.000   0.680
   68        0.514   0.117   0.000   0.631
   69        0.432   0.103   0.000   0.536
   70        0.557   0.117   0.000   0.674
   71        0.569   0.118   0.000   0.688
   72        0.492   0.114   0.000   0.606
   73        0.557   0.117   0.000   0.674
   74        0.570   0.119   0.000   0.688
   75        0.492   0.114   0.000   0.605
   76        0.557   0.117   0.000   0.674
   77        0.570   0.118   0.000   0.689
   78        0.491   0.114   0.000   0.604
   79        0.557   0.117   0.000   0.674
   80        0.569   0.118   0.000   0.688
   81        0.493   0.113   0.000   0.607
   82        0.557   0.117   0.000   0.674
   83        0.570   0.118   0.000   0.688
   84        0.487   0.112   0.000   0.599
   85        0.563   0.117   0.000   0.680
   86        0.513   0.116   0.000   0.630
   87        0.432   0.103   0.000   0.536
   88        0.563   0.117   0.000   0.680
   89        0.531   0.120   0.000   0.650
   90        0.466   0.112   0.000   0.578
   91        0.586   0.103   0.000   0.689
   92        0.575   0.122   0.000   0.697
   93        0.483   0.118   0.000   0.601
   94        0.553   0.108   0.000   0.661
   95        0.555   0.112   0.000   0.667
   96        0.485   0.105   0.000   0.590
   97        0.586   0.103   0.000   0.689
   98        0.575   0.122   0.000   0.697
   99        0.475   0.116   0.000   0.591
  100        0.554   0.108   0.000   0.661
  101        0.555   0.112   0.000   0.667
  102        0.478   0.105   0.000   0.583
  103        0.586   0.103   0.000   0.689
  104        0.575   0.122   0.000   0.697
  105        0.478   0.117   0.000   0.595
  106        0.553   0.108   0.000   0.661
  107        0.555   0.112   0.000   0.667
  108        0.477   0.105   0.000   0.582
  109        0.569   0.121   0.000   0.690
  110        0.584   0.126   0.000   0.710
  111        0.456   0.120   0.000   0.576
  112        0.553   0.108   0.000   0.660
  113        0.549   0.108   0.000   0.657
  114        0.440   0.103   0.000   0.542
  115        0.569   0.121   0.000   0.690
  116        0.583   0.126   0.000   0.710
  117        0.439   0.116   0.000   0.555
  118        0.553   0.108   0.000   0.660
  119        0.550   0.107   0.000   0.657
  120        0.423   0.100   0.000   0.523
  121        0.569   0.122   0.000   0.690
  122        0.584   0.127   0.000   0.710
  123        0.454   0.120   0.000   0.574
  124        0.553   0.108   0.000   0.660
  125        0.546   0.107   0.000   0.653
  126        0.437   0.102   0.000   0.540
  127        0.563   0.117   0.000   0.680
  128        0.490   0.111   0.000   0.602
  129        0.444   0.106   0.000   0.550
  130        0.563   0.117   0.000   0.680
  131        0.544   0.123   0.000   0.667
  132        0.451   0.108   0.000   0.559
  133        0.557   0.117   0.000   0.674
  134        0.570   0.118   0.000   0.688
  135        0.502   0.116   0.000   0.618
  136        0.557   0.117   0.000   0.674
  137        0.570   0.118   0.000   0.688
  138        0.502   0.116   0.000   0.618
  139        0.557   0.117   0.000   0.674
  140        0.569   0.118   0.000   0.687
  141        0.485   0.112   0.000   0.597
  142        0.557   0.117   0.000   0.674
  143        0.569   0.118   0.000   0.688
  144        0.497   0.116   0.000   0.612
  145        0.557   0.117   0.000   0.674
  146        0.569   0.118   0.000   0.688
  147        0.500   0.116   0.000   0.616
  148        0.563   0.117   0.000   0.680
  149        0.492   0.112   0.000   0.604
  150        0.444   0.107   0.000   0.551
  151        0.563   0.117   0.000   0.680
  152        0.544   0.123   0.000   0.667
  153        0.453   0.109   0.000   0.561
  154        0.564   0.117   0.000   0.680
  155        0.485   0.111   0.000   0.596
  156        0.445   0.106   0.000   0.551
  157        0.587   0.103   0.000   0.689
  158        0.575   0.122   0.000   0.697
  159        0.464   0.112   0.000   0.576
  160        0.554   0.108   0.000   0.661
  161        0.555   0.112   0.000   0.667
  162        0.466   0.103   0.000   0.569
  163        0.586   0.103   0.000   0.689
  164        0.575   0.122   0.000   0.697
  165        0.472   0.116   0.000   0.587
  166        0.553   0.108   0.000   0.661
  167        0.555   0.112   0.000   0.667
  168        0.473   0.104   0.000   0.577
  169        0.587   0.103   0.000   0.690
  170        0.575   0.122   0.000   0.697
  171        0.489   0.119   0.000   0.608
  172        0.553   0.108   0.000   0.661
  173        0.555   0.112   0.000   0.667
  174        0.490   0.107   0.000   0.597
  175        0.569   0.121   0.000   0.690
  176        0.584   0.126   0.000   0.710
  177        0.457   0.121   0.000   0.578
  178        0.553   0.108   0.000   0.660
  179        0.546   0.107   0.000   0.653
  180        0.439   0.103   0.000   0.543
  181        0.569   0.121   0.000   0.690
  182        0.584   0.126   0.000   0.710
  183        0.431   0.114   0.000   0.546
  184        0.553   0.108   0.000   0.660
  185        0.548   0.108   0.000   0.655
  186        0.421   0.100   0.000   0.521
  187        0.569   0.122   0.000   0.690
  188        0.584   0.127   0.000   0.711
  189        0.458   0.120   0.000   0.578
  190        0.553   0.108   0.000   0.660
  191        0.547   0.107   0.000   0.654
  192        0.439   0.103   0.000   0.542
  193        0.563   0.117   0.000   0.680
  194        0.499   0.113   0.000   0.612
  195        0.431   0.104   0.000   0.535
  196        0.563   0.117   0.000   0.680
  197        0.514   0.117   0.000   0.631
  198        0.479   0.115   0.000   0.594
  199        0.564   0.117   0.000   0.680
  200        0.535   0.121   0.000   0.656
  201        0.441   0.105   0.000   0.545
  202        0.557   0.117   0.000   0.674
  203        0.570   0.118   0.000   0.688
  204        0.488   0.113   0.000   0.601
  205        0.557   0.117   0.000   0.674
  206        0.570   0.118   0.000   0.688
  207        0.498   0.115   0.000   0.613
  208        0.557   0.117   0.000   0.674
  209        0.569   0.118   0.000   0.688
  210        0.500   0.115   0.000   0.615
  211        0.557   0.117   0.000   0.674
  212        0.569   0.119   0.000   0.688
  213        0.497   0.115   0.000   0.612
  214        0.557   0.117   0.000   0.674
  215        0.569   0.118   0.000   0.688
  216        0.498   0.115   0.000   0.613
  217        0.557   0.117   0.000   0.674
  218        0.569   0.118   0.000   0.688
  219        0.492   0.113   0.000   0.605
  220        0.563   0.117   0.000   0.680
  221        0.535   0.121   0.000   0.655
  222        0.436   0.105   0.000   0.541
  223        0.563   0.117   0.000   0.680
  224        0.514   0.116   0.000   0.631
  225        0.480   0.114   0.000   0.594
  226        0.564   0.117   0.000   0.680
  227        0.497   0.113   0.000   0.610
  228        0.436   0.104   0.000   0.539
  229        0.586   0.103   0.000   0.689
  230        0.575   0.122   0.000   0.697
  231        0.493   0.121   0.000   0.615
  232        0.553   0.108   0.000   0.661
  233        0.555   0.112   0.000   0.667
  234        0.496   0.107   0.000   0.603
  235        0.586   0.103   0.000   0.689
  236        0.575   0.122   0.000   0.697
  237        0.477   0.118   0.000   0.595
  238        0.553   0.108   0.000   0.661
  239        0.555   0.112   0.000   0.667
  240        0.479   0.105   0.000   0.583
  241        0.586   0.103   0.000   0.689
  242        0.575   0.122   0.000   0.697
  243        0.474   0.116   0.000   0.590
  244        0.553   0.108   0.000   0.661
  245        0.555   0.112   0.000   0.667
  246        0.473   0.104   0.000   0.577
  247        0.569   0.122   0.000   0.690
  248        0.585   0.126   0.000   0.711
  249        0.449   0.118   0.000   0.567
  250        0.553   0.108   0.000   0.660
  251        0.547   0.107   0.000   0.654
  252        0.434   0.103   0.000   0.537
  253        0.569   0.121   0.000   0.690
  254        0.584   0.126   0.000   0.710
  255        0.434   0.115   0.000   0.549
  256        0.553   0.108   0.000   0.660
  257        0.549   0.107   0.000   0.656
  258        0.420   0.101   0.000   0.521
  259        0.569   0.122   0.000   0.690
  260        0.583   0.126   0.000   0.710
  261        0.458   0.121   0.000   0.579
  262        0.553   0.108   0.000   0.660
  263        0.546   0.108   0.000   0.653
  264        0.440   0.103   0.000   0.544
  265        0.563   0.117   0.000   0.680
  266        0.540   0.122   0.000   0.662
  267        0.478   0.113   0.000   0.591
  268        0.557   0.117   0.000   0.674
  269        0.569   0.118   0.000   0.688
  270        0.485   0.112   0.000   0.597
  271        0.564   0.117   0.000   0.680
  272        0.488   0.111   0.000   0.598
  273        0.445   0.106   0.000   0.551
  274        0.557   0.117   0.000   0.674
  275        0.569   0.118   0.000   0.687
  276        0.484   0.113   0.000   0.597
  277        0.557   0.117   0.000   0.674
  278        0.569   0.118   0.000   0.688
  279        0.494   0.115   0.000   0.608
  280        0.564   0.117   0.000   0.680
  281        0.520   0.117   0.000   0.637
  282        0.437   0.104   0.000   0.541
  283        0.557   0.117   0.000   0.674
  284        0.569   0.118   0.000   0.687
  285        0.484   0.113   0.000   0.596
  286        0.564   0.117   0.000   0.680
  287        0.540   0.122   0.000   0.662
  288        0.453   0.108   0.000   0.561
  289        1.562   3.537   0.000   5.099
  290        1.594   3.698   0.000   5.292
  291        0.894   3.955   0.000   4.849
  292        1.578   3.664   0.000   5.242
  293        1.282   3.868   0.000   5.150
  294        0.443   3.829   0.000   4.272
  295        1.562   3.539   0.000   5.101
  296        1.597   3.697   0.000   5.294
  297        0.878   3.951   0.000   4.829
  298        1.578   3.665   0.000   5.243
  299        1.019   3.855   0.000   4.875
  300        1.138   3.880   0.000   5.018
  301        1.561   3.535   0.000   5.096
  302        1.596   3.697   0.000   5.294
  303        0.997   3.958   0.000   4.955
  304        1.578   3.664   0.000   5.242
  305        1.488   3.874   0.000   5.362
  306        0.807   3.855   0.000   4.662
  307        1.571   3.635   0.000   5.207
  308        1.611   3.737   0.000   5.349
  309        0.573   3.906   0.000   4.479
  310        1.577   3.669   0.000   5.246
  311        1.609   3.722   0.000   5.331
  312        1.012   3.977   0.000   4.989
  313        1.572   3.635   0.000   5.207
  314        1.606   3.734   0.000   5.340
  315        0.398   3.890   0.000   4.288
  316        1.576   3.671   0.000   5.247
  317        1.610   3.720   0.000   5.330
  318        1.046   3.973   0.000   5.019
  319        1.572   3.635   0.000   5.206
  320        1.612   3.740   0.000   5.352
  321        0.513   3.898   0.000   4.412
  322        1.577   3.667   0.000   5.243
  323        1.609   3.720   0.000   5.330
  324        0.904   3.973   0.000   4.877
  325        1.562   3.538   0.000   5.100
  326        1.595   3.697   0.000   5.292
  327        0.945   3.955   0.000   4.900
  328        1.578   3.664   0.000   5.243
  329        1.486   3.874   0.000   5.360
  330        0.612   3.839   0.000   4.451
  331        1.562   3.542   0.000   5.104
  332        1.595   3.698   0.000   5.293
  333        0.874   3.950   0.000   4.824
  334        1.578   3.664   0.000   5.243
  335        1.400   3.868   0.000   5.268
  336        0.728   3.850   0.000   4.578
  337        1.562   3.540   0.000   5.102
  338        1.595   3.697   0.000   5.292
  339        0.895   3.958   0.000   4.853
  340        1.578   3.664   0.000   5.243
  341        1.247   3.864   0.000   5.112
  342        0.434   3.825   0.000   4.259
  343        1.571   3.634   0.000   5.206
  344        1.613   3.741   0.000   5.355
  345        0.528   3.902   0.000   4.430
  346        1.576   3.669   0.000   5.245
  347        1.609   3.721   0.000   5.330
  348        0.898   3.971   0.000   4.869
  349        1.572   3.635   0.000   5.207
  350        1.607   3.740   0.000   5.347
  351        0.398   3.887   0.000   4.285
  352        1.576   3.670   0.000   5.246
  353        1.610   3.721   0.000   5.331
  354        0.969   3.969   0.000   4.938
  355        1.572   3.636   0.000   5.207
  356        1.607   3.741   0.000   5.348
  357        0.520   3.903   0.000   4.423
  358        1.577   3.669   0.000   5.245
  359        1.612   3.718   0.000   5.330
  360        0.950   3.974   0.000   4.924
  361        1.562   3.541   0.000   5.103
  362        1.594   3.697   0.000   5.292
  363        0.785   3.946   0.000   4.731
  364        1.578   3.664   0.000   5.242
  365        1.016   3.861   0.000   4.877
  366        0.528   3.834   0.000   4.361
  367        1.562   3.539   0.000   5.101
  368        1.596   3.697   0.000   5.293
  369        0.844   3.956   0.000   4.799
  370        1.578   3.664   0.000   5.242
  371        1.519   3.877   0.000   5.397
  372        0.608   3.841   0.000   4.450
  373        1.562   3.541   0.000   5.103
  374        1.594   3.697   0.000   5.292
  375        0.990   3.958   0.000   4.948
  376        1.578   3.664   0.000   5.242
  377        1.043   3.859   0.000   4.902
  378        0.549   3.835   0.000   4.384
  379        1.572   3.635   0.000   5.207
  380        1.609   3.737   0.000   5.346
  381        0.552   3.902   0.000   4.455
  382        1.577   3.670   0.000   5.247
  383        1.610   3.719   0.000   5.329
  384        1.064   3.974   0.000   5.038
  385        1.572   3.636   0.000   5.208
  386        1.611   3.733   0.000   5.344
  387        0.376   3.885   0.000   4.261
  388        1.576   3.670   0.000   5.246
  389        1.610   3.720   0.000   5.331
  390        1.035   3.972   0.000   5.007
  391        1.571   3.635   0.000   5.207
  392        1.615   3.741   0.000   5.356
  393        0.541   3.898   0.000   4.439
  394        1.577   3.667   0.000   5.243
  395        1.608   3.720   0.000   5.328
  396        0.897   3.972   0.000   4.869
  397        1.562   3.537   0.000   5.099
  398        1.597   3.697   0.000   5.294
  399        1.040   3.958   0.000   4.998
  400        1.578   3.665   0.000   5.243
  401        1.091   3.869   0.000   4.960
  402        0.443   3.826   0.000   4.269
  403        1.562   3.540   0.000   5.102
  404        1.594   3.697   0.000   5.292
  405        0.887   3.954   0.000   4.840
  406        1.578   3.664   0.000   5.242
  407        1.235   3.875   0.000   5.110
  408        0.832   3.858   0.000   4.690
  409        1.562   3.539   0.000   5.101
  410        1.596   3.698   0.000   5.294
  411        0.843   3.953   0.000   4.796
  412        1.578   3.665   0.000   5.243
  413        1.425   3.878   0.000   5.304
  414        0.473   3.832   0.000   4.304
  415        1.572   3.635   0.000   5.206
  416        1.612   3.734   0.000   5.346
  417        0.501   3.895   0.000   4.396
  418        1.577   3.668   0.000   5.245
  419        1.610   3.719   0.000   5.329
  420        0.930   3.972   0.000   4.903
  421        1.572   3.635   0.000   5.207
  422        1.610   3.731   0.000   5.342
  423        0.392   3.891   0.000   4.283
  424        1.576   3.670   0.000   5.246
  425        1.611   3.720   0.000   5.331
  426        1.006   3.976   0.000   4.982
  427        1.571   3.636   0.000   5.207
  428        1.609   3.742   0.000   5.351
  429        0.562   3.904   0.000   4.466
  430        1.576   3.670   0.000   5.246
  431        1.610   3.719   0.000   5.329
  432        1.024   3.976   0.000   5.000
--------------------------------------------------
tot        336.644 575.182   0.000 911.826
 

 total amount of memory used by VASP MPI-rank0    88898. kBytes
=======================================================================

   base      :      30000. kBytes
   nonlr-proj:       1822. kBytes
   fftplans  :      10983. kBytes
   grid      :      19058. kBytes
   one-center:         33. kBytes
   wavefun   :      27002. kBytes
 
  
  
 General timing and accounting informations for this job:
 ========================================================
  
                  Total CPU time used (sec):     5733.135
                            User time (sec):     5703.875
                          System time (sec):       29.260
                         Elapsed time (sec):     5801.850
  
                   Maximum memory used (kb):     1169756.
                   Average memory used (kb):           0.
  
                          Minor page faults:      1810881
                          Major page faults:            0
                 Voluntary context switches:        60472
