  93  93   0   0
  0.1016658E+02  0.9814900E-09  0.9814900E-09  0.9814900E-09  0.5000000E-15
  1.000000000000000E-004
  CAR 
 ice                                     
      9.59282735    -25.05923719  301     -1.49572050      1.00000000
    -25.059  0.0000E+00  0.0000E+00
    -24.944  0.0000E+00  0.0000E+00
    -24.828  0.0000E+00  0.0000E+00
    -24.713  0.0000E+00  0.0000E+00
    -24.597  0.0000E+00  0.0000E+00
    -24.482  0.0000E+00  0.0000E+00
    -24.366  0.0000E+00  0.0000E+00
    -24.251  0.0000E+00  0.0000E+00
    -24.135  0.0000E+00  0.0000E+00
    -24.020  0.0000E+00  0.0000E+00
    -23.904  0.3471E-02  0.4009E-03
    -23.789  0.3446E-01  0.4382E-02
    -23.673  0.3379E+00  0.4341E-01
    -23.558  0.2876E+01  0.3756E+00
    -23.442  0.1108E+02  0.1655E+01
    -23.327  0.1378E+02  0.3246E+01
    -23.211  0.9603E+01  0.4355E+01
    -23.096  0.1493E+02  0.6080E+01
    -22.980  0.1985E+02  0.8374E+01
    -22.865  0.1965E+02  0.1064E+02
    -22.749  0.2762E+02  0.1383E+02
    -22.634  0.2135E+02  0.1631E+02
    -22.518  0.2739E+02  0.1947E+02
    -22.403  0.3438E+02  0.2345E+02
    -22.287  0.2702E+02  0.2657E+02
    -22.172  0.2359E+02  0.2930E+02
    -22.056  0.2524E+02  0.3222E+02
    -21.941  0.3054E+02  0.3575E+02
    -21.825  0.3695E+02  0.4002E+02
    -21.710  0.2910E+02  0.4339E+02
    -21.594  0.2032E+02  0.4574E+02
    -21.479  0.1490E+02  0.4747E+02
    -21.363  0.1616E+02  0.4934E+02
    -21.248  0.5001E+01  0.4992E+02
    -21.132  0.6289E+00  0.4999E+02
    -21.016  0.3559E-02  0.5000E+02
    -20.901  0.3868E-01  0.5000E+02
    -20.785  0.3766E+00  0.5005E+02
    -20.670  0.3228E+01  0.5042E+02
    -20.554  0.1337E+02  0.5197E+02
    -20.439  0.1994E+02  0.5427E+02
    -20.323  0.1260E+02  0.5573E+02
    -20.208  0.4975E+01  0.5630E+02
    -20.092  0.1283E+02  0.5779E+02
    -19.977  0.1482E+02  0.5950E+02
    -19.861  0.3821E+01  0.5995E+02
    -19.746  0.6281E+00  0.6002E+02
    -19.630  0.1640E+01  0.6021E+02
    -19.515  0.7602E+01  0.6109E+02
    -19.399  0.6548E+01  0.6185E+02
    -19.284  0.1182E+01  0.6198E+02
    -19.168  0.1269E+00  0.6200E+02
    -19.053  0.0000E+00  0.6200E+02
    -18.937  0.0000E+00  0.6200E+02
    -18.822  0.0000E+00  0.6200E+02
    -18.706  0.0000E+00  0.6200E+02
    -18.591  0.0000E+00  0.6200E+02
    -18.475  0.0000E+00  0.6200E+02
    -18.360  0.0000E+00  0.6200E+02
    -18.244  0.0000E+00  0.6200E+02
    -18.129  0.0000E+00  0.6200E+02
    -18.013  0.0000E+00  0.6200E+02
    -17.898  0.0000E+00  0.6200E+02
    -17.782  0.0000E+00  0.6200E+02
    -17.667  0.0000E+00  0.6200E+02
    -17.551  0.0000E+00  0.6200E+02
    -17.436  0.0000E+00  0.6200E+02
    -17.320  0.0000E+00  0.6200E+02
    -17.205  0.0000E+00  0.6200E+02
    -17.089  0.0000E+00  0.6200E+02
    -16.974  0.0000E+00  0.6200E+02
    -16.858  0.0000E+00  0.6200E+02
    -16.743  0.0000E+00  0.6200E+02
    -16.627  0.0000E+00  0.6200E+02
    -16.512  0.0000E+00  0.6200E+02
    -16.396  0.0000E+00  0.6200E+02
    -16.281  0.0000E+00  0.6200E+02
    -16.165  0.0000E+00  0.6200E+02
    -16.050  0.0000E+00  0.6200E+02
    -15.934  0.0000E+00  0.6200E+02
    -15.819  0.0000E+00  0.6200E+02
    -15.703  0.0000E+00  0.6200E+02
    -15.588  0.0000E+00  0.6200E+02
    -15.472  0.0000E+00  0.6200E+02
    -15.357  0.0000E+00  0.6200E+02
    -15.241  0.0000E+00  0.6200E+02
    -15.126  0.0000E+00  0.6200E+02
    -15.010  0.0000E+00  0.6200E+02
    -14.895  0.0000E+00  0.6200E+02
    -14.779  0.0000E+00  0.6200E+02
    -14.664  0.0000E+00  0.6200E+02
    -14.548  0.0000E+00  0.6200E+02
    -14.433  0.0000E+00  0.6200E+02
    -14.317  0.0000E+00  0.6200E+02
    -14.202  0.0000E+00  0.6200E+02
    -14.086  0.0000E+00  0.6200E+02
    -13.971  0.0000E+00  0.6200E+02
    -13.855  0.0000E+00  0.6200E+02
    -13.740  0.0000E+00  0.6200E+02
    -13.624  0.0000E+00  0.6200E+02
    -13.509  0.0000E+00  0.6200E+02
    -13.393  0.0000E+00  0.6200E+02
    -13.278  0.0000E+00  0.6200E+02
    -13.162  0.0000E+00  0.6200E+02
    -13.047  0.0000E+00  0.6200E+02
    -12.931  0.0000E+00  0.6200E+02
    -12.816  0.0000E+00  0.6200E+02
    -12.700  0.0000E+00  0.6200E+02
    -12.584  0.0000E+00  0.6200E+02
    -12.469  0.0000E+00  0.6200E+02
    -12.353  0.0000E+00  0.6200E+02
    -12.238  0.0000E+00  0.6200E+02
    -12.122  0.0000E+00  0.6200E+02
    -12.007  0.4330E-02  0.6200E+02
    -11.891  0.3920E-01  0.6201E+02
    -11.776  0.3865E+00  0.6205E+02
    -11.660  0.3113E+01  0.6241E+02
    -11.545  0.9089E+01  0.6346E+02
    -11.429  0.5550E+01  0.6410E+02
    -11.314  0.9647E+01  0.6521E+02
    -11.198  0.1781E+02  0.6727E+02
    -11.083  0.1071E+02  0.6851E+02
    -10.967  0.1258E+02  0.6996E+02
    -10.852  0.1226E+02  0.7139E+02
    -10.736  0.7691E+01  0.7227E+02
    -10.621  0.1455E+02  0.7396E+02
    -10.505  0.2634E+02  0.7700E+02
    -10.390  0.2792E+02  0.8023E+02
    -10.274  0.3261E+02  0.8399E+02
    -10.159  0.3060E+02  0.8754E+02
    -10.043  0.2376E+02  0.9028E+02
     -9.928  0.2212E+02  0.9284E+02
     -9.812  0.2275E+02  0.9548E+02
     -9.697  0.3727E+02  0.9979E+02
     -9.581  0.2783E+02  0.1030E+03
     -9.466  0.7628E+01  0.1039E+03
     -9.350  0.1605E+01  0.1041E+03
     -9.235  0.5681E+01  0.1047E+03
     -9.119  0.2183E+02  0.1073E+03
     -9.004  0.3565E+02  0.1114E+03
     -8.888  0.2173E+02  0.1139E+03
     -8.773  0.1326E+02  0.1154E+03
     -8.657  0.1366E+02  0.1170E+03
     -8.542  0.7789E+01  0.1179E+03
     -8.426  0.5698E+01  0.1186E+03
     -8.311  0.1669E+02  0.1205E+03
     -8.195  0.1800E+02  0.1226E+03
     -8.080  0.1325E+02  0.1241E+03
     -7.964  0.1313E+02  0.1256E+03
     -7.849  0.1541E+02  0.1274E+03
     -7.733  0.1956E+02  0.1297E+03
     -7.618  0.1503E+02  0.1314E+03
     -7.502  0.2013E+02  0.1337E+03
     -7.387  0.2813E+02  0.1370E+03
     -7.271  0.3007E+02  0.1405E+03
     -7.156  0.2676E+02  0.1436E+03
     -7.040  0.2598E+02  0.1466E+03
     -6.925  0.2548E+02  0.1495E+03
     -6.809  0.2270E+02  0.1521E+03
     -6.694  0.1975E+02  0.1544E+03
     -6.578  0.1544E+02  0.1562E+03
     -6.463  0.1798E+02  0.1583E+03
     -6.347  0.1694E+02  0.1603E+03
     -6.232  0.1671E+02  0.1622E+03
     -6.116  0.1794E+02  0.1643E+03
     -6.001  0.1892E+02  0.1664E+03
     -5.885  0.1895E+02  0.1686E+03
     -5.770  0.2225E+02  0.1712E+03
     -5.654  0.2551E+02  0.1742E+03
     -5.539  0.1902E+02  0.1764E+03
     -5.423  0.2200E+02  0.1789E+03
     -5.308  0.2781E+02  0.1821E+03
     -5.192  0.2683E+02  0.1852E+03
     -5.077  0.2040E+02  0.1876E+03
     -4.961  0.2012E+02  0.1899E+03
     -4.846  0.2745E+02  0.1931E+03
     -4.730  0.2912E+02  0.1965E+03
     -4.615  0.3085E+02  0.2000E+03
     -4.499  0.4981E+02  0.2058E+03
     -4.384  0.6113E+02  0.2128E+03
     -4.268  0.5462E+02  0.2192E+03
     -4.152  0.3784E+02  0.2235E+03
     -4.037  0.3194E+02  0.2272E+03
     -3.921  0.3724E+02  0.2315E+03
     -3.806  0.2924E+02  0.2349E+03
     -3.690  0.1375E+02  0.2365E+03
     -3.575  0.1139E+02  0.2378E+03
     -3.459  0.1178E+02  0.2392E+03
     -3.344  0.1617E+02  0.2411E+03
     -3.228  0.1162E+02  0.2424E+03
     -3.113  0.1547E+02  0.2442E+03
     -2.997  0.1243E+02  0.2456E+03
     -2.882  0.3562E+01  0.2461E+03
     -2.766  0.5403E+01  0.2467E+03
     -2.651  0.8597E+01  0.2477E+03
     -2.535  0.2428E+01  0.2480E+03
     -2.420  0.2859E+00  0.2480E+03
     -2.304  0.0000E+00  0.2480E+03
     -2.189  0.0000E+00  0.2480E+03
     -2.073  0.0000E+00  0.2480E+03
     -1.958  0.0000E+00  0.2480E+03
     -1.842  0.0000E+00  0.2480E+03
     -1.727  0.0000E+00  0.2480E+03
     -1.611  0.0000E+00  0.2480E+03
     -1.496  0.0000E+00  0.2480E+03
     -1.380  0.0000E+00  0.2480E+03
     -1.265  0.0000E+00  0.2480E+03
     -1.149  0.0000E+00  0.2480E+03
     -1.034  0.0000E+00  0.2480E+03
     -0.918  0.0000E+00  0.2480E+03
     -0.803  0.0000E+00  0.2480E+03
     -0.687  0.0000E+00  0.2480E+03
     -0.572  0.0000E+00  0.2480E+03
     -0.456  0.0000E+00  0.2480E+03
     -0.341  0.0000E+00  0.2480E+03
     -0.225  0.0000E+00  0.2480E+03
     -0.110  0.0000E+00  0.2480E+03
      0.006  0.0000E+00  0.2480E+03
      0.121  0.3121E-04  0.2480E+03
      0.237  0.5492E-03  0.2480E+03
      0.352  0.5742E-02  0.2480E+03
      0.468  0.5597E-01  0.2480E+03
      0.583  0.4178E+00  0.2481E+03
      0.699  0.1608E+01  0.2482E+03
      0.814  0.3725E+01  0.2487E+03
      0.930  0.5938E+01  0.2494E+03
      1.045  0.4346E+01  0.2499E+03
      1.161  0.1114E+01  0.2500E+03
      1.276  0.5124E+00  0.2500E+03
      1.392  0.2455E+01  0.2503E+03
      1.507  0.6311E+01  0.2511E+03
      1.623  0.5225E+01  0.2517E+03
      1.738  0.2198E+01  0.2519E+03
      1.854  0.7970E+00  0.2520E+03
      1.969  0.1603E+01  0.2522E+03
      2.085  0.5489E+01  0.2528E+03
      2.200  0.7571E+01  0.2537E+03
      2.316  0.6506E+01  0.2545E+03
      2.431  0.5933E+01  0.2551E+03
      2.547  0.5311E+01  0.2558E+03
      2.662  0.5875E+01  0.2564E+03
      2.778  0.7212E+01  0.2573E+03
      2.893  0.7474E+01  0.2581E+03
      3.009  0.7452E+01  0.2590E+03
      3.124  0.8395E+01  0.2600E+03
      3.240  0.9454E+01  0.2611E+03
      3.355  0.1063E+02  0.2623E+03
      3.471  0.1042E+02  0.2635E+03
      3.586  0.1056E+02  0.2647E+03
      3.702  0.1136E+02  0.2660E+03
      3.817  0.1158E+02  0.2674E+03
      3.933  0.1208E+02  0.2688E+03
      4.048  0.1185E+02  0.2701E+03
      4.164  0.1241E+02  0.2716E+03
      4.280  0.1259E+02  0.2730E+03
      4.395  0.1250E+02  0.2745E+03
      4.511  0.1355E+02  0.2760E+03
      4.626  0.1448E+02  0.2777E+03
      4.742  0.1558E+02  0.2795E+03
      4.857  0.1685E+02  0.2815E+03
      4.973  0.1765E+02  0.2835E+03
      5.088  0.1740E+02  0.2855E+03
      5.204  0.1839E+02  0.2876E+03
      5.319  0.1960E+02  0.2899E+03
      5.435  0.1917E+02  0.2921E+03
      5.550  0.1897E+02  0.2943E+03
      5.666  0.2026E+02  0.2967E+03
      5.781  0.2224E+02  0.2992E+03
      5.897  0.2279E+02  0.3019E+03
      6.012  0.2380E+02  0.3046E+03
      6.128  0.2593E+02  0.3076E+03
      6.243  0.2720E+02  0.3108E+03
      6.359  0.2643E+02  0.3138E+03
      6.474  0.2551E+02  0.3168E+03
      6.590  0.2600E+02  0.3198E+03
      6.705  0.2533E+02  0.3227E+03
      6.821  0.2467E+02  0.3256E+03
      6.936  0.2380E+02  0.3283E+03
      7.052  0.2320E+02  0.3310E+03
      7.167  0.2199E+02  0.3335E+03
      7.283  0.2068E+02  0.3359E+03
      7.398  0.1877E+02  0.3381E+03
      7.514  0.1662E+02  0.3400E+03
      7.629  0.1403E+02  0.3417E+03
      7.745  0.1067E+02  0.3429E+03
      7.860  0.6404E+01  0.3436E+03
      7.976  0.2391E+01  0.3439E+03
      8.091  0.6034E+00  0.3440E+03
      8.207  0.8391E-01  0.3440E+03
      8.322  0.6599E-02  0.3440E+03
      8.438  0.0000E+00  0.3440E+03
      8.553  0.0000E+00  0.3440E+03
      8.669  0.0000E+00  0.3440E+03
      8.784  0.0000E+00  0.3440E+03
      8.900  0.0000E+00  0.3440E+03
      9.015  0.0000E+00  0.3440E+03
      9.131  0.0000E+00  0.3440E+03
      9.246  0.0000E+00  0.3440E+03
      9.362  0.0000E+00  0.3440E+03
      9.477  0.0000E+00  0.3440E+03
      9.593  0.0000E+00  0.3440E+03
