Loading vasp/5.4.4-mpi-cuda
  Loading requirement: gcc/8.5.0 intel-compilers/19.0.4 cuda/10.1.1
    intel-mpi/2019.4
 running on   40 total cores
 distrk:  each k-point on   40 cores,    1 groups
 distr:  one band on   20 cores,    2 groups
 using from now: INCAR     
 vasp.5.4.4.18Apr17-6-g9f103f2a35 (build Dec 06 2019 17:20:26) complex          
  
 POSCAR found type information on POSCAR  O  H 
 POSCAR found :  2 types and      93 ions
 scaLAPACK will be used

 ----------------------------------------------------------------------------- 
|                                                                             |
|           W    W    AA    RRRRR   N    N  II  N    N   GGGG   !!!           |
|           W    W   A  A   R    R  NN   N  II  NN   N  G    G  !!!           |
|           W    W  A    A  R    R  N N  N  II  N N  N  G       !!!           |
|           W WW W  AAAAAA  RRRRR   N  N N  II  N  N N  G  GGG   !            |
|           WW  WW  A    A  R   R   N   NN  II  N   NN  G    G                |
|           W    W  A    A  R    R  N    N  II  N    N   GGGG   !!!           |
|                                                                             |
|      For optimal performance we recommend to set                            |
|        NCORE= 4 - approx SQRT( number of cores)                             |
|      NCORE specifies how many cores store one orbital (NPAR=cpu/NCORE).     |
|      This setting can  greatly improve the performance of VASP for DFT.     |
|      The default,   NCORE=1            might be grossly inefficient         |
|      on modern multi-core architectures or massively parallel machines.     |
|      Do your own testing !!!!                                               |
|      Unfortunately you need to use the default for GW and RPA calculations. |
|      (for HF NCORE is supported but not extensively tested yet)             |
|                                                                             |
 ----------------------------------------------------------------------------- 

 LDA part: xc-table for Pade appr. of Perdew
 POSCAR, INCAR and KPOINTS ok, starting setup
 FFT: planning ...
 WAVECAR not read
 WARNING: chargedensity file is incomplete
 WARNING: random wavefunctions but no delay for mixing, default for NELMDL
 entering main loop
       N       E                     dE             d eps       ncg     rms          rms(c)
RMM:   1     0.332275486524E+04    0.33228E+04   -0.74371E+04 86688   0.878E+02
RMM:   2     0.105224397415E+04   -0.22705E+04   -0.24376E+04 86688   0.253E+02
RMM:   3     0.875419898941E+02   -0.96470E+03   -0.10264E+04 86688   0.187E+02
RMM:   4    -0.343636972913E+03   -0.43118E+03   -0.36728E+03 86688   0.130E+02
RMM:   5    -0.451240769579E+03   -0.10760E+03   -0.97881E+02 86688   0.685E+01
RMM:   6    -0.478854793095E+03   -0.27614E+02   -0.25220E+02 86688   0.354E+01
RMM:   7    -0.486184160122E+03   -0.73294E+01   -0.70215E+01 86688   0.180E+01
RMM:   8    -0.488382108568E+03   -0.21979E+01   -0.20728E+01 86688   0.961E+00
RMM:   9    -0.489246357467E+03   -0.86425E+00   -0.84881E+00221709   0.509E+00
RMM:  10    -0.489365794529E+03   -0.11944E+00   -0.11267E+00235335   0.148E+00
RMM:  11    -0.489368050383E+03   -0.22559E-02   -0.38408E-02221806   0.314E-01
RMM:  12    -0.489368688205E+03   -0.63782E-03   -0.62592E-03222848   0.818E-02    0.396E+01
RMM:  13    -0.448061556800E+03    0.41307E+02   -0.14630E+02210329   0.243E+01    0.152E+01
RMM:  14    -0.446826050444E+03    0.12355E+01   -0.54497E+00217946   0.417E+00    0.961E+00
RMM:  15    -0.446326827177E+03    0.49922E+00   -0.16358E+00214877   0.354E+00    0.133E+00
RMM:  16    -0.446286167844E+03    0.40659E-01   -0.27918E-01221222   0.942E-01    0.518E-01
RMM:  17    -0.446296998258E+03   -0.10830E-01   -0.37111E-02208710   0.373E-01    0.297E-01
RMM:  18    -0.446295386081E+03    0.16122E-02   -0.82420E-03214288   0.208E-01    0.770E-02
RMM:  19    -0.446294858424E+03    0.52766E-03   -0.16937E-03218520   0.703E-02    0.302E-02
RMM:  20    -0.446294734358E+03    0.12407E-03   -0.39454E-04219792   0.324E-02    0.171E-02
RMM:  21    -0.446294704554E+03    0.29804E-04   -0.75778E-05220964   0.141E-02    0.717E-03
RMM:  22    -0.446294698528E+03    0.60254E-05   -0.17842E-05202916   0.736E-03    0.348E-03
RMM:  23    -0.446294698002E+03    0.52585E-06   -0.24721E-06169122   0.298E-03
   1 F= -.44936994E+03 E0= -.44936994E+03  d E =-.450138E-10
