<?xml version="1.0" encoding="ISO-8859-1"?>
<modeling>
 <generator>
  <i name="program" type="string">vasp </i>
  <i name="version" type="string">5.4.4.18Apr17-6-g9f103f2a35  </i>
  <i name="subversion" type="string">(build Dec 06 2019 17:20:26) complex            parallel </i>
  <i name="platform" type="string">LinuxIFC </i>
  <i name="date" type="string">2025 07 03 </i>
  <i name="time" type="string">17:38:54 </i>
 </generator>
 <incar>
  <i type="string" name="SYSTEM"> ice</i>
  <i type="int" name="ISTART">     1</i>
  <i type="string" name="PREC">normal</i>
  <i type="string" name="ALGO"> VeryFast</i>
  <i type="int" name="IMIX">     4</i>
  <i type="int" name="MAXMIX">    40</i>
  <i type="int" name="ICHARG">     1</i>
  <i type="int" name="NELM">   500</i>
  <i type="int" name="NELMIN">     4</i>
  <i type="int" name="IBRION">    -1</i>
  <i name="EDIFF">      0.00000100</i>
  <i type="int" name="NSW">     0</i>
  <i type="int" name="ISIF">     2</i>
  <i name="ENCUT">    400.00000000</i>
  <i name="POTIM">      0.50000000</i>
  <i type="string" name="LREAL"> AUTO</i>
  <i type="int" name="ISMEAR">    -1</i>
  <i name="SIGMA">      0.05000000</i>
  <i type="int" name="NWRITE">     0</i>
  <i type="logical" name="LWAVE"> F  </i>
  <i type="logical" name="LCHARG"> F  </i>
  <i type="logical" name="LVTOT"> T  </i>
  <i type="logical" name="LVHAR"> T  </i>
  <v type="int" name="KPOINT_BSE">    -1     0     0     0</v>
  <i type="int" name="NELM">   500</i>
 </incar>
 <structure name="primitive_cell" >
  <crystal>
   <varray name="basis" >
    <v>       9.81490000       0.00000000       0.00000000 </v>
    <v>       0.00000000       9.81490000       0.00000000 </v>
    <v>       0.00000000       0.00000000       9.81490000 </v>
   </varray>
   <i name="volume">    945.49151840 </i>
   <varray name="rec_basis" >
    <v>       0.10188591       0.00000000       0.00000000 </v>
    <v>       0.00000000       0.10188591       0.00000000 </v>
    <v>       0.00000000       0.00000000       0.10188591 </v>
   </varray>
  </crystal>
  <varray name="positions" >
   <v>      -0.41992175       0.38460911       0.13049547 </v>
   <v>      -0.46607811       0.47011483       0.12172819 </v>
   <v>      -0.32152747       0.40687220       0.08189589 </v>
   <v>      -0.38225555       0.37702473       0.29917167 </v>
   <v>       0.47637164       0.23650470       0.11586058 </v>
   <v>       0.46618203       0.14060969       0.09200511 </v>
   <v>      -0.36264964       0.35655891       0.39870809 </v>
   <v>       0.35358893      -0.45648962       0.11275815 </v>
   <v>      -0.16009027       0.39263569       0.02211454 </v>
   <v>      -0.33047815       0.44447727       0.39682422 </v>
   <v>       0.39424039      -0.38151280       0.15811776 </v>
   <v>      -0.19563623       0.39975649      -0.07073378 </v>
   <v>       0.29154856       0.47299922       0.16756972 </v>
   <v>      -0.13892653       0.49410896       0.02345821 </v>
   <v>       0.37455603       0.13440178       0.05815057 </v>
   <v>      -0.34972847       0.32434869      -0.19392658 </v>
   <v>       0.35774078      -0.42984646      -0.04391588 </v>
   <v>      -0.48618631       0.16745662      -0.13299983 </v>
   <v>       0.42935435       0.10503316       0.27520403 </v>
   <v>       0.39042374       0.26745968       0.42104759 </v>
   <v>      -0.39457152      -0.32666150       0.36715300 </v>
   <v>      -0.44255469       0.00997320       0.08945674 </v>
   <v>       0.40941222       0.42243018       0.46817899 </v>
   <v>      -0.06194296       0.25654872       0.15035303 </v>
   <v>      -0.30880600       0.14180583       0.41404192 </v>
   <v>      -0.42548676       0.19109313      -0.20943464 </v>
   <v>       0.34175488       0.36316621       0.44007886 </v>
   <v>       0.46558702      -0.26490336       0.26201999 </v>
   <v>      -0.27970025       0.39280074      -0.24263721 </v>
   <v>       0.41295989       0.11879184       0.37907671 </v>
   <v>      -0.31678876      -0.34634790       0.41884889 </v>
   <v>       0.34579364      -0.39012726      -0.14972440 </v>
   <v>       0.48721943      -0.19315327       0.19920937 </v>
   <v>      -0.43551845       0.05005176       0.41576379 </v>
   <v>      -0.37446332       0.11494259      -0.21522787 </v>
   <v>      -0.32309550       0.46130068      -0.29614871 </v>
   <v>       0.43123822      -0.24493780       0.34911512 </v>
   <v>       0.30998482       0.09806376       0.36380401 </v>
   <v>       0.23183629       0.13718836      -0.04932908 </v>
   <v>      -0.32319738       0.04388817       0.43445476 </v>
   <v>      -0.36255489      -0.37041335      -0.47563908 </v>
   <v>       0.01370793       0.21352026       0.18370029 </v>
   <v>      -0.20665519      -0.25480647      -0.08401196 </v>
   <v>      -0.24272280      -0.01778469       0.30407646 </v>
   <v>      -0.39814466      -0.08943963       0.09829820 </v>
   <v>      -0.31023342      -0.08159645       0.12517601 </v>
   <v>      -0.06540790      -0.34640292      -0.04821425 </v>
   <v>       0.23555003       0.19278036      -0.14338506 </v>
   <v>      -0.09615442       0.03254949       0.18473647 </v>
   <v>      -0.12999929      -0.34667801       0.40840151 </v>
   <v>       0.16600984       0.16403631       0.01131341 </v>
   <v>       0.30391751      -0.29742840      -0.11166696 </v>
   <v>       0.17233390       0.40691194       0.40749575 </v>
   <v>      -0.31484376      -0.15479220      -0.04113134 </v>
   <v>       0.04599456       0.25845195       0.27862739 </v>
   <v>      -0.15600770      -0.05103465       0.23728107 </v>
   <v>      -0.27313574      -0.18357803      -0.12867171 </v>
   <v>      -0.13814914       0.31013969      -0.31162722 </v>
   <v>      -0.00954885      -0.29179513       0.02754435 </v>
   <v>       0.00517479      -0.42818470       0.40702198 </v>
   <v>      -0.02815617      -0.33524234       0.39946102 </v>
   <v>       0.27231454       0.21278362      -0.29425262 </v>
   <v>       0.24892154      -0.03340421      -0.03114683 </v>
   <v>       0.00709829      -0.38115416      -0.14112217 </v>
   <v>       0.23119848      -0.18640129       0.05802484 </v>
   <v>       0.16984585      -0.42615717      -0.19887416 </v>
   <v>       0.06976648       0.38309815       0.40746314 </v>
   <v>       0.27985817      -0.14225107      -0.02198759 </v>
   <v>       0.02922760       0.35278709      -0.49872133 </v>
   <v>       0.29520932       0.27447045      -0.36762371 </v>
   <v>       0.04867946      -0.27889739       0.24917014 </v>
   <v>      -0.25131993       0.01863340      -0.30063577 </v>
   <v>      -0.03704806       0.33092747      -0.32885409 </v>
   <v>      -0.28017606      -0.06139767      -0.25151963 </v>
   <v>       0.14530764       0.03631010       0.37328450 </v>
   <v>       0.04911532       0.46629105      -0.25100714 </v>
   <v>       0.37380921      -0.16648769       0.49986245 </v>
   <v>       0.06954151      -0.23595248       0.16706029 </v>
   <v>       0.06778592       0.03557499       0.29138860 </v>
   <v>      -0.31640771       0.01474585      -0.38095447 </v>
   <v>       0.18111137       0.19562808      -0.30861547 </v>
   <v>       0.44472791      -0.18476092      -0.42661056 </v>
   <v>      -0.01379596       0.23785877      -0.34371415 </v>
   <v>       0.08636349      -0.43695300      -0.24774374 </v>
   <v>       0.03964870      -0.15035711       0.18904930 </v>
   <v>       0.29247878      -0.20171882      -0.44264435 </v>
   <v>       0.07479383       0.04896025       0.46723044 </v>
   <v>      -0.09651917       0.02188733      -0.35714475 </v>
   <v>       0.00387014       0.04610266      -0.36924981 </v>
   <v>       0.11333585      -0.27499414      -0.33136252 </v>
   <v>       0.06793650      -0.20282428      -0.47142610 </v>
   <v>       0.12678682      -0.18934783      -0.39191535 </v>
   <v>       0.06159788      -0.03455430      -0.36979694 </v>
  </varray>
 </structure>
 <varray name="primitive_index" >
  <v type="int" >        1 </v>
  <v type="int" >       32 </v>
  <v type="int" >       33 </v>
  <v type="int" >       86 </v>
  <v type="int" >       67 </v>
  <v type="int" >       18 </v>
  <v type="int" >       28 </v>
  <v type="int" >       26 </v>
  <v type="int" >       11 </v>
  <v type="int" >       87 </v>
  <v type="int" >       82 </v>
  <v type="int" >       52 </v>
  <v type="int" >       83 </v>
  <v type="int" >       53 </v>
  <v type="int" >       66 </v>
  <v type="int" >       45 </v>
  <v type="int" >       62 </v>
  <v type="int" >       46 </v>
  <v type="int" >       75 </v>
  <v type="int" >       73 </v>
  <v type="int" >       69 </v>
  <v type="int" >       90 </v>
  <v type="int" >       72 </v>
  <v type="int" >       48 </v>
  <v type="int" >       60 </v>
  <v type="int" >        8 </v>
  <v type="int" >       21 </v>
  <v type="int" >       27 </v>
  <v type="int" >        7 </v>
  <v type="int" >       22 </v>
  <v type="int" >       19 </v>
  <v type="int" >       16 </v>
  <v type="int" >       85 </v>
  <v type="int" >       61 </v>
  <v type="int" >       47 </v>
  <v type="int" >       44 </v>
  <v type="int" >       84 </v>
  <v type="int" >       74 </v>
  <v type="int" >       17 </v>
  <v type="int" >       15 </v>
  <v type="int" >       68 </v>
  <v type="int" >        9 </v>
  <v type="int" >       59 </v>
  <v type="int" >       71 </v>
  <v type="int" >       30 </v>
  <v type="int" >       91 </v>
  <v type="int" >       29 </v>
  <v type="int" >       64 </v>
  <v type="int" >       70 </v>
  <v type="int" >       92 </v>
  <v type="int" >       65 </v>
  <v type="int" >       63 </v>
  <v type="int" >       38 </v>
  <v type="int" >       58 </v>
  <v type="int" >       49 </v>
  <v type="int" >       20 </v>
  <v type="int" >       14 </v>
  <v type="int" >       57 </v>
  <v type="int" >       89 </v>
  <v type="int" >       93 </v>
  <v type="int" >       31 </v>
  <v type="int" >       12 </v>
  <v type="int" >       50 </v>
  <v type="int" >       88 </v>
  <v type="int" >       51 </v>
  <v type="int" >       37 </v>
  <v type="int" >        4 </v>
  <v type="int" >       10 </v>
  <v type="int" >       39 </v>
  <v type="int" >       55 </v>
  <v type="int" >       41 </v>
  <v type="int" >        6 </v>
  <v type="int" >       13 </v>
  <v type="int" >       43 </v>
  <v type="int" >       24 </v>
  <v type="int" >       36 </v>
  <v type="int" >       25 </v>
  <v type="int" >        5 </v>
  <v type="int" >       78 </v>
  <v type="int" >       42 </v>
  <v type="int" >       54 </v>
  <v type="int" >       81 </v>
  <v type="int" >       56 </v>
  <v type="int" >        3 </v>
  <v type="int" >       40 </v>
  <v type="int" >       80 </v>
  <v type="int" >       79 </v>
  <v type="int" >       76 </v>
  <v type="int" >       23 </v>
  <v type="int" >       35 </v>
  <v type="int" >       34 </v>
  <v type="int" >        2 </v>
  <v type="int" >       77 </v>
 </varray>
 <kpoints>
  <generation param="Gamma">
   <v type="int" name="divisions">      10       10       10 </v>
   <v name="usershift">      0.00000000       0.00000000       0.00000000 </v>
   <v name="genvec1">      0.10000000       0.00000000       0.00000000 </v>
   <v name="genvec2">      0.00000000       0.10000000       0.00000000 </v>
   <v name="genvec3">      0.00000000       0.00000000       0.10000000 </v>
   <v name="shift">      0.00000000       0.00000000       0.00000000 </v>
  </generation>
  <varray name="kpointlist" >
   <v>       0.00000000       0.00000000       0.00000000 </v>
   <v>       0.10000000       0.00000000       0.00000000 </v>
   <v>       0.20000000       0.00000000       0.00000000 </v>
   <v>       0.30000000       0.00000000       0.00000000 </v>
   <v>       0.40000000       0.00000000       0.00000000 </v>
   <v>       0.50000000       0.00000000       0.00000000 </v>
   <v>       0.00000000       0.10000000       0.00000000 </v>
   <v>       0.10000000       0.10000000       0.00000000 </v>
   <v>       0.20000000       0.10000000       0.00000000 </v>
   <v>       0.30000000       0.10000000       0.00000000 </v>
   <v>       0.40000000       0.10000000       0.00000000 </v>
   <v>       0.50000000       0.10000000       0.00000000 </v>
   <v>      -0.40000000       0.10000000       0.00000000 </v>
   <v>      -0.30000000       0.10000000       0.00000000 </v>
   <v>      -0.20000000       0.10000000       0.00000000 </v>
   <v>      -0.10000000       0.10000000       0.00000000 </v>
   <v>       0.00000000       0.20000000       0.00000000 </v>
   <v>       0.10000000       0.20000000       0.00000000 </v>
   <v>       0.20000000       0.20000000       0.00000000 </v>
   <v>       0.30000000       0.20000000       0.00000000 </v>
   <v>       0.40000000       0.20000000       0.00000000 </v>
   <v>       0.50000000       0.20000000       0.00000000 </v>
   <v>      -0.40000000       0.20000000       0.00000000 </v>
   <v>      -0.30000000       0.20000000       0.00000000 </v>
   <v>      -0.20000000       0.20000000       0.00000000 </v>
   <v>      -0.10000000       0.20000000       0.00000000 </v>
   <v>       0.00000000       0.30000000       0.00000000 </v>
   <v>       0.10000000       0.30000000       0.00000000 </v>
   <v>       0.20000000       0.30000000       0.00000000 </v>
   <v>       0.30000000       0.30000000       0.00000000 </v>
   <v>       0.40000000       0.30000000       0.00000000 </v>
   <v>       0.50000000       0.30000000       0.00000000 </v>
   <v>      -0.40000000       0.30000000       0.00000000 </v>
   <v>      -0.30000000       0.30000000       0.00000000 </v>
   <v>      -0.20000000       0.30000000       0.00000000 </v>
   <v>      -0.10000000       0.30000000       0.00000000 </v>
   <v>       0.00000000       0.40000000       0.00000000 </v>
   <v>       0.10000000       0.40000000       0.00000000 </v>
   <v>       0.20000000       0.40000000       0.00000000 </v>
   <v>       0.30000000       0.40000000       0.00000000 </v>
   <v>       0.40000000       0.40000000       0.00000000 </v>
   <v>       0.50000000       0.40000000       0.00000000 </v>
   <v>      -0.40000000       0.40000000       0.00000000 </v>
   <v>      -0.30000000       0.40000000       0.00000000 </v>
   <v>      -0.20000000       0.40000000       0.00000000 </v>
   <v>      -0.10000000       0.40000000       0.00000000 </v>
   <v>       0.00000000       0.50000000       0.00000000 </v>
   <v>       0.10000000       0.50000000       0.00000000 </v>
   <v>       0.20000000       0.50000000       0.00000000 </v>
   <v>       0.30000000       0.50000000       0.00000000 </v>
   <v>       0.40000000       0.50000000       0.00000000 </v>
   <v>       0.50000000       0.50000000       0.00000000 </v>
   <v>       0.00000000       0.00000000       0.10000000 </v>
   <v>       0.10000000       0.00000000       0.10000000 </v>
   <v>       0.20000000       0.00000000       0.10000000 </v>
   <v>       0.30000000       0.00000000       0.10000000 </v>
   <v>       0.40000000       0.00000000       0.10000000 </v>
   <v>       0.50000000       0.00000000       0.10000000 </v>
   <v>      -0.40000000       0.00000000       0.10000000 </v>
   <v>      -0.30000000       0.00000000       0.10000000 </v>
   <v>      -0.20000000       0.00000000       0.10000000 </v>
   <v>      -0.10000000       0.00000000       0.10000000 </v>
   <v>       0.00000000       0.10000000       0.10000000 </v>
   <v>       0.10000000       0.10000000       0.10000000 </v>
   <v>       0.20000000       0.10000000       0.10000000 </v>
   <v>       0.30000000       0.10000000       0.10000000 </v>
   <v>       0.40000000       0.10000000       0.10000000 </v>
   <v>       0.50000000       0.10000000       0.10000000 </v>
   <v>      -0.40000000       0.10000000       0.10000000 </v>
   <v>      -0.30000000       0.10000000       0.10000000 </v>
   <v>      -0.20000000       0.10000000       0.10000000 </v>
   <v>      -0.10000000       0.10000000       0.10000000 </v>
   <v>       0.00000000       0.20000000       0.10000000 </v>
   <v>       0.10000000       0.20000000       0.10000000 </v>
   <v>       0.20000000       0.20000000       0.10000000 </v>
   <v>       0.30000000       0.20000000       0.10000000 </v>
   <v>       0.40000000       0.20000000       0.10000000 </v>
   <v>       0.50000000       0.20000000       0.10000000 </v>
   <v>      -0.40000000       0.20000000       0.10000000 </v>
   <v>      -0.30000000       0.20000000       0.10000000 </v>
   <v>      -0.20000000       0.20000000       0.10000000 </v>
   <v>      -0.10000000       0.20000000       0.10000000 </v>
   <v>       0.00000000       0.30000000       0.10000000 </v>
   <v>       0.10000000       0.30000000       0.10000000 </v>
   <v>       0.20000000       0.30000000       0.10000000 </v>
   <v>       0.30000000       0.30000000       0.10000000 </v>
   <v>       0.40000000       0.30000000       0.10000000 </v>
   <v>       0.50000000       0.30000000       0.10000000 </v>
   <v>      -0.40000000       0.30000000       0.10000000 </v>
   <v>      -0.30000000       0.30000000       0.10000000 </v>
   <v>      -0.20000000       0.30000000       0.10000000 </v>
   <v>      -0.10000000       0.30000000       0.10000000 </v>
   <v>       0.00000000       0.40000000       0.10000000 </v>
   <v>       0.10000000       0.40000000       0.10000000 </v>
   <v>       0.20000000       0.40000000       0.10000000 </v>
   <v>       0.30000000       0.40000000       0.10000000 </v>
   <v>       0.40000000       0.40000000       0.10000000 </v>
   <v>       0.50000000       0.40000000       0.10000000 </v>
   <v>      -0.40000000       0.40000000       0.10000000 </v>
   <v>      -0.30000000       0.40000000       0.10000000 </v>
   <v>      -0.20000000       0.40000000       0.10000000 </v>
   <v>      -0.10000000       0.40000000       0.10000000 </v>
   <v>       0.00000000       0.50000000       0.10000000 </v>
   <v>       0.10000000       0.50000000       0.10000000 </v>
   <v>       0.20000000       0.50000000       0.10000000 </v>
   <v>       0.30000000       0.50000000       0.10000000 </v>
   <v>       0.40000000       0.50000000       0.10000000 </v>
   <v>       0.50000000       0.50000000       0.10000000 </v>
   <v>      -0.40000000       0.50000000       0.10000000 </v>
   <v>      -0.30000000       0.50000000       0.10000000 </v>
   <v>      -0.20000000       0.50000000       0.10000000 </v>
   <v>      -0.10000000       0.50000000       0.10000000 </v>
   <v>       0.00000000      -0.40000000       0.10000000 </v>
   <v>       0.10000000      -0.40000000       0.10000000 </v>
   <v>       0.20000000      -0.40000000       0.10000000 </v>
   <v>       0.30000000      -0.40000000       0.10000000 </v>
   <v>       0.40000000      -0.40000000       0.10000000 </v>
   <v>       0.50000000      -0.40000000       0.10000000 </v>
   <v>      -0.40000000      -0.40000000       0.10000000 </v>
   <v>      -0.30000000      -0.40000000       0.10000000 </v>
   <v>      -0.20000000      -0.40000000       0.10000000 </v>
   <v>      -0.10000000      -0.40000000       0.10000000 </v>
   <v>       0.00000000      -0.30000000       0.10000000 </v>
   <v>       0.10000000      -0.30000000       0.10000000 </v>
   <v>       0.20000000      -0.30000000       0.10000000 </v>
   <v>       0.30000000      -0.30000000       0.10000000 </v>
   <v>       0.40000000      -0.30000000       0.10000000 </v>
   <v>       0.50000000      -0.30000000       0.10000000 </v>
   <v>      -0.40000000      -0.30000000       0.10000000 </v>
   <v>      -0.30000000      -0.30000000       0.10000000 </v>
   <v>      -0.20000000      -0.30000000       0.10000000 </v>
   <v>      -0.10000000      -0.30000000       0.10000000 </v>
   <v>       0.00000000      -0.20000000       0.10000000 </v>
   <v>       0.10000000      -0.20000000       0.10000000 </v>
   <v>       0.20000000      -0.20000000       0.10000000 </v>
   <v>       0.30000000      -0.20000000       0.10000000 </v>
   <v>       0.40000000      -0.20000000       0.10000000 </v>
   <v>       0.50000000      -0.20000000       0.10000000 </v>
   <v>      -0.40000000      -0.20000000       0.10000000 </v>
   <v>      -0.30000000      -0.20000000       0.10000000 </v>
   <v>      -0.20000000      -0.20000000       0.10000000 </v>
   <v>      -0.10000000      -0.20000000       0.10000000 </v>
   <v>       0.00000000      -0.10000000       0.10000000 </v>
   <v>       0.10000000      -0.10000000       0.10000000 </v>
   <v>       0.20000000      -0.10000000       0.10000000 </v>
   <v>       0.30000000      -0.10000000       0.10000000 </v>
   <v>       0.40000000      -0.10000000       0.10000000 </v>
   <v>       0.50000000      -0.10000000       0.10000000 </v>
   <v>      -0.40000000      -0.10000000       0.10000000 </v>
   <v>      -0.30000000      -0.10000000       0.10000000 </v>
   <v>      -0.20000000      -0.10000000       0.10000000 </v>
   <v>      -0.10000000      -0.10000000       0.10000000 </v>
   <v>       0.00000000       0.00000000       0.20000000 </v>
   <v>       0.10000000       0.00000000       0.20000000 </v>
   <v>       0.20000000       0.00000000       0.20000000 </v>
   <v>       0.30000000       0.00000000       0.20000000 </v>
   <v>       0.40000000       0.00000000       0.20000000 </v>
   <v>       0.50000000       0.00000000       0.20000000 </v>
   <v>      -0.40000000       0.00000000       0.20000000 </v>
   <v>      -0.30000000       0.00000000       0.20000000 </v>
   <v>      -0.20000000       0.00000000       0.20000000 </v>
   <v>      -0.10000000       0.00000000       0.20000000 </v>
   <v>       0.00000000       0.10000000       0.20000000 </v>
   <v>       0.10000000       0.10000000       0.20000000 </v>
   <v>       0.20000000       0.10000000       0.20000000 </v>
   <v>       0.30000000       0.10000000       0.20000000 </v>
   <v>       0.40000000       0.10000000       0.20000000 </v>
   <v>       0.50000000       0.10000000       0.20000000 </v>
   <v>      -0.40000000       0.10000000       0.20000000 </v>
   <v>      -0.30000000       0.10000000       0.20000000 </v>
   <v>      -0.20000000       0.10000000       0.20000000 </v>
   <v>      -0.10000000       0.10000000       0.20000000 </v>
   <v>       0.00000000       0.20000000       0.20000000 </v>
   <v>       0.10000000       0.20000000       0.20000000 </v>
   <v>       0.20000000       0.20000000       0.20000000 </v>
   <v>       0.30000000       0.20000000       0.20000000 </v>
   <v>       0.40000000       0.20000000       0.20000000 </v>
   <v>       0.50000000       0.20000000       0.20000000 </v>
   <v>      -0.40000000       0.20000000       0.20000000 </v>
   <v>      -0.30000000       0.20000000       0.20000000 </v>
   <v>      -0.20000000       0.20000000       0.20000000 </v>
   <v>      -0.10000000       0.20000000       0.20000000 </v>
   <v>       0.00000000       0.30000000       0.20000000 </v>
   <v>       0.10000000       0.30000000       0.20000000 </v>
   <v>       0.20000000       0.30000000       0.20000000 </v>
   <v>       0.30000000       0.30000000       0.20000000 </v>
   <v>       0.40000000       0.30000000       0.20000000 </v>
   <v>       0.50000000       0.30000000       0.20000000 </v>
   <v>      -0.40000000       0.30000000       0.20000000 </v>
   <v>      -0.30000000       0.30000000       0.20000000 </v>
   <v>      -0.20000000       0.30000000       0.20000000 </v>
   <v>      -0.10000000       0.30000000       0.20000000 </v>
   <v>       0.00000000       0.40000000       0.20000000 </v>
   <v>       0.10000000       0.40000000       0.20000000 </v>
   <v>       0.20000000       0.40000000       0.20000000 </v>
   <v>       0.30000000       0.40000000       0.20000000 </v>
   <v>       0.40000000       0.40000000       0.20000000 </v>
   <v>       0.50000000       0.40000000       0.20000000 </v>
   <v>      -0.40000000       0.40000000       0.20000000 </v>
   <v>      -0.30000000       0.40000000       0.20000000 </v>
   <v>      -0.20000000       0.40000000       0.20000000 </v>
   <v>      -0.10000000       0.40000000       0.20000000 </v>
   <v>       0.00000000       0.50000000       0.20000000 </v>
   <v>       0.10000000       0.50000000       0.20000000 </v>
   <v>       0.20000000       0.50000000       0.20000000 </v>
   <v>       0.30000000       0.50000000       0.20000000 </v>
   <v>       0.40000000       0.50000000       0.20000000 </v>
   <v>       0.50000000       0.50000000       0.20000000 </v>
   <v>      -0.40000000       0.50000000       0.20000000 </v>
   <v>      -0.30000000       0.50000000       0.20000000 </v>
   <v>      -0.20000000       0.50000000       0.20000000 </v>
   <v>      -0.10000000       0.50000000       0.20000000 </v>
   <v>       0.00000000      -0.40000000       0.20000000 </v>
   <v>       0.10000000      -0.40000000       0.20000000 </v>
   <v>       0.20000000      -0.40000000       0.20000000 </v>
   <v>       0.30000000      -0.40000000       0.20000000 </v>
   <v>       0.40000000      -0.40000000       0.20000000 </v>
   <v>       0.50000000      -0.40000000       0.20000000 </v>
   <v>      -0.40000000      -0.40000000       0.20000000 </v>
   <v>      -0.30000000      -0.40000000       0.20000000 </v>
   <v>      -0.20000000      -0.40000000       0.20000000 </v>
   <v>      -0.10000000      -0.40000000       0.20000000 </v>
   <v>       0.00000000      -0.30000000       0.20000000 </v>
   <v>       0.10000000      -0.30000000       0.20000000 </v>
   <v>       0.20000000      -0.30000000       0.20000000 </v>
   <v>       0.30000000      -0.30000000       0.20000000 </v>
   <v>       0.40000000      -0.30000000       0.20000000 </v>
   <v>       0.50000000      -0.30000000       0.20000000 </v>
   <v>      -0.40000000      -0.30000000       0.20000000 </v>
   <v>      -0.30000000      -0.30000000       0.20000000 </v>
   <v>      -0.20000000      -0.30000000       0.20000000 </v>
   <v>      -0.10000000      -0.30000000       0.20000000 </v>
   <v>       0.00000000      -0.20000000       0.20000000 </v>
   <v>       0.10000000      -0.20000000       0.20000000 </v>
   <v>       0.20000000      -0.20000000       0.20000000 </v>
   <v>       0.30000000      -0.20000000       0.20000000 </v>
   <v>       0.40000000      -0.20000000       0.20000000 </v>
   <v>       0.50000000      -0.20000000       0.20000000 </v>
   <v>      -0.40000000      -0.20000000       0.20000000 </v>
   <v>      -0.30000000      -0.20000000       0.20000000 </v>
   <v>      -0.20000000      -0.20000000       0.20000000 </v>
   <v>      -0.10000000      -0.20000000       0.20000000 </v>
   <v>       0.00000000      -0.10000000       0.20000000 </v>
   <v>       0.10000000      -0.10000000       0.20000000 </v>
   <v>       0.20000000      -0.10000000       0.20000000 </v>
   <v>       0.30000000      -0.10000000       0.20000000 </v>
   <v>       0.40000000      -0.10000000       0.20000000 </v>
   <v>       0.50000000      -0.10000000       0.20000000 </v>
   <v>      -0.40000000      -0.10000000       0.20000000 </v>
   <v>      -0.30000000      -0.10000000       0.20000000 </v>
   <v>      -0.20000000      -0.10000000       0.20000000 </v>
   <v>      -0.10000000      -0.10000000       0.20000000 </v>
   <v>       0.00000000       0.00000000       0.30000000 </v>
   <v>       0.10000000       0.00000000       0.30000000 </v>
   <v>       0.20000000       0.00000000       0.30000000 </v>
   <v>       0.30000000       0.00000000       0.30000000 </v>
   <v>       0.40000000       0.00000000       0.30000000 </v>
   <v>       0.50000000       0.00000000       0.30000000 </v>
   <v>      -0.40000000       0.00000000       0.30000000 </v>
   <v>      -0.30000000       0.00000000       0.30000000 </v>
   <v>      -0.20000000       0.00000000       0.30000000 </v>
   <v>      -0.10000000       0.00000000       0.30000000 </v>
   <v>       0.00000000       0.10000000       0.30000000 </v>
   <v>       0.10000000       0.10000000       0.30000000 </v>
   <v>       0.20000000       0.10000000       0.30000000 </v>
   <v>       0.30000000       0.10000000       0.30000000 </v>
   <v>       0.40000000       0.10000000       0.30000000 </v>
   <v>       0.50000000       0.10000000       0.30000000 </v>
   <v>      -0.40000000       0.10000000       0.30000000 </v>
   <v>      -0.30000000       0.10000000       0.30000000 </v>
   <v>      -0.20000000       0.10000000       0.30000000 </v>
   <v>      -0.10000000       0.10000000       0.30000000 </v>
   <v>       0.00000000       0.20000000       0.30000000 </v>
   <v>       0.10000000       0.20000000       0.30000000 </v>
   <v>       0.20000000       0.20000000       0.30000000 </v>
   <v>       0.30000000       0.20000000       0.30000000 </v>
   <v>       0.40000000       0.20000000       0.30000000 </v>
   <v>       0.50000000       0.20000000       0.30000000 </v>
   <v>      -0.40000000       0.20000000       0.30000000 </v>
   <v>      -0.30000000       0.20000000       0.30000000 </v>
   <v>      -0.20000000       0.20000000       0.30000000 </v>
   <v>      -0.10000000       0.20000000       0.30000000 </v>
   <v>       0.00000000       0.30000000       0.30000000 </v>
   <v>       0.10000000       0.30000000       0.30000000 </v>
   <v>       0.20000000       0.30000000       0.30000000 </v>
   <v>       0.30000000       0.30000000       0.30000000 </v>
   <v>       0.40000000       0.30000000       0.30000000 </v>
   <v>       0.50000000       0.30000000       0.30000000 </v>
   <v>      -0.40000000       0.30000000       0.30000000 </v>
   <v>      -0.30000000       0.30000000       0.30000000 </v>
   <v>      -0.20000000       0.30000000       0.30000000 </v>
   <v>      -0.10000000       0.30000000       0.30000000 </v>
   <v>       0.00000000       0.40000000       0.30000000 </v>
   <v>       0.10000000       0.40000000       0.30000000 </v>
   <v>       0.20000000       0.40000000       0.30000000 </v>
   <v>       0.30000000       0.40000000       0.30000000 </v>
   <v>       0.40000000       0.40000000       0.30000000 </v>
   <v>       0.50000000       0.40000000       0.30000000 </v>
   <v>      -0.40000000       0.40000000       0.30000000 </v>
   <v>      -0.30000000       0.40000000       0.30000000 </v>
   <v>      -0.20000000       0.40000000       0.30000000 </v>
   <v>      -0.10000000       0.40000000       0.30000000 </v>
   <v>       0.00000000       0.50000000       0.30000000 </v>
   <v>       0.10000000       0.50000000       0.30000000 </v>
   <v>       0.20000000       0.50000000       0.30000000 </v>
   <v>       0.30000000       0.50000000       0.30000000 </v>
   <v>       0.40000000       0.50000000       0.30000000 </v>
   <v>       0.50000000       0.50000000       0.30000000 </v>
   <v>      -0.40000000       0.50000000       0.30000000 </v>
   <v>      -0.30000000       0.50000000       0.30000000 </v>
   <v>      -0.20000000       0.50000000       0.30000000 </v>
   <v>      -0.10000000       0.50000000       0.30000000 </v>
   <v>       0.00000000      -0.40000000       0.30000000 </v>
   <v>       0.10000000      -0.40000000       0.30000000 </v>
   <v>       0.20000000      -0.40000000       0.30000000 </v>
   <v>       0.30000000      -0.40000000       0.30000000 </v>
   <v>       0.40000000      -0.40000000       0.30000000 </v>
   <v>       0.50000000      -0.40000000       0.30000000 </v>
   <v>      -0.40000000      -0.40000000       0.30000000 </v>
   <v>      -0.30000000      -0.40000000       0.30000000 </v>
   <v>      -0.20000000      -0.40000000       0.30000000 </v>
   <v>      -0.10000000      -0.40000000       0.30000000 </v>
   <v>       0.00000000      -0.30000000       0.30000000 </v>
   <v>       0.10000000      -0.30000000       0.30000000 </v>
   <v>       0.20000000      -0.30000000       0.30000000 </v>
   <v>       0.30000000      -0.30000000       0.30000000 </v>
   <v>       0.40000000      -0.30000000       0.30000000 </v>
   <v>       0.50000000      -0.30000000       0.30000000 </v>
   <v>      -0.40000000      -0.30000000       0.30000000 </v>
   <v>      -0.30000000      -0.30000000       0.30000000 </v>
   <v>      -0.20000000      -0.30000000       0.30000000 </v>
   <v>      -0.10000000      -0.30000000       0.30000000 </v>
   <v>       0.00000000      -0.20000000       0.30000000 </v>
   <v>       0.10000000      -0.20000000       0.30000000 </v>
   <v>       0.20000000      -0.20000000       0.30000000 </v>
   <v>       0.30000000      -0.20000000       0.30000000 </v>
   <v>       0.40000000      -0.20000000       0.30000000 </v>
   <v>       0.50000000      -0.20000000       0.30000000 </v>
   <v>      -0.40000000      -0.20000000       0.30000000 </v>
   <v>      -0.30000000      -0.20000000       0.30000000 </v>
   <v>      -0.20000000      -0.20000000       0.30000000 </v>
   <v>      -0.10000000      -0.20000000       0.30000000 </v>
   <v>       0.00000000      -0.10000000       0.30000000 </v>
   <v>       0.10000000      -0.10000000       0.30000000 </v>
   <v>       0.20000000      -0.10000000       0.30000000 </v>
   <v>       0.30000000      -0.10000000       0.30000000 </v>
   <v>       0.40000000      -0.10000000       0.30000000 </v>
   <v>       0.50000000      -0.10000000       0.30000000 </v>
   <v>      -0.40000000      -0.10000000       0.30000000 </v>
   <v>      -0.30000000      -0.10000000       0.30000000 </v>
   <v>      -0.20000000      -0.10000000       0.30000000 </v>
   <v>      -0.10000000      -0.10000000       0.30000000 </v>
   <v>       0.00000000       0.00000000       0.40000000 </v>
   <v>       0.10000000       0.00000000       0.40000000 </v>
   <v>       0.20000000       0.00000000       0.40000000 </v>
   <v>       0.30000000       0.00000000       0.40000000 </v>
   <v>       0.40000000       0.00000000       0.40000000 </v>
   <v>       0.50000000       0.00000000       0.40000000 </v>
   <v>      -0.40000000       0.00000000       0.40000000 </v>
   <v>      -0.30000000       0.00000000       0.40000000 </v>
   <v>      -0.20000000       0.00000000       0.40000000 </v>
   <v>      -0.10000000       0.00000000       0.40000000 </v>
   <v>       0.00000000       0.10000000       0.40000000 </v>
   <v>       0.10000000       0.10000000       0.40000000 </v>
   <v>       0.20000000       0.10000000       0.40000000 </v>
   <v>       0.30000000       0.10000000       0.40000000 </v>
   <v>       0.40000000       0.10000000       0.40000000 </v>
   <v>       0.50000000       0.10000000       0.40000000 </v>
   <v>      -0.40000000       0.10000000       0.40000000 </v>
   <v>      -0.30000000       0.10000000       0.40000000 </v>
   <v>      -0.20000000       0.10000000       0.40000000 </v>
   <v>      -0.10000000       0.10000000       0.40000000 </v>
   <v>       0.00000000       0.20000000       0.40000000 </v>
   <v>       0.10000000       0.20000000       0.40000000 </v>
   <v>       0.20000000       0.20000000       0.40000000 </v>
   <v>       0.30000000       0.20000000       0.40000000 </v>
   <v>       0.40000000       0.20000000       0.40000000 </v>
   <v>       0.50000000       0.20000000       0.40000000 </v>
   <v>      -0.40000000       0.20000000       0.40000000 </v>
   <v>      -0.30000000       0.20000000       0.40000000 </v>
   <v>      -0.20000000       0.20000000       0.40000000 </v>
   <v>      -0.10000000       0.20000000       0.40000000 </v>
   <v>       0.00000000       0.30000000       0.40000000 </v>
   <v>       0.10000000       0.30000000       0.40000000 </v>
   <v>       0.20000000       0.30000000       0.40000000 </v>
   <v>       0.30000000       0.30000000       0.40000000 </v>
   <v>       0.40000000       0.30000000       0.40000000 </v>
   <v>       0.50000000       0.30000000       0.40000000 </v>
   <v>      -0.40000000       0.30000000       0.40000000 </v>
   <v>      -0.30000000       0.30000000       0.40000000 </v>
   <v>      -0.20000000       0.30000000       0.40000000 </v>
   <v>      -0.10000000       0.30000000       0.40000000 </v>
   <v>       0.00000000       0.40000000       0.40000000 </v>
   <v>       0.10000000       0.40000000       0.40000000 </v>
   <v>       0.20000000       0.40000000       0.40000000 </v>
   <v>       0.30000000       0.40000000       0.40000000 </v>
   <v>       0.40000000       0.40000000       0.40000000 </v>
   <v>       0.50000000       0.40000000       0.40000000 </v>
   <v>      -0.40000000       0.40000000       0.40000000 </v>
   <v>      -0.30000000       0.40000000       0.40000000 </v>
   <v>      -0.20000000       0.40000000       0.40000000 </v>
   <v>      -0.10000000       0.40000000       0.40000000 </v>
   <v>       0.00000000       0.50000000       0.40000000 </v>
   <v>       0.10000000       0.50000000       0.40000000 </v>
   <v>       0.20000000       0.50000000       0.40000000 </v>
   <v>       0.30000000       0.50000000       0.40000000 </v>
   <v>       0.40000000       0.50000000       0.40000000 </v>
   <v>       0.50000000       0.50000000       0.40000000 </v>
   <v>      -0.40000000       0.50000000       0.40000000 </v>
   <v>      -0.30000000       0.50000000       0.40000000 </v>
   <v>      -0.20000000       0.50000000       0.40000000 </v>
   <v>      -0.10000000       0.50000000       0.40000000 </v>
   <v>       0.00000000      -0.40000000       0.40000000 </v>
   <v>       0.10000000      -0.40000000       0.40000000 </v>
   <v>       0.20000000      -0.40000000       0.40000000 </v>
   <v>       0.30000000      -0.40000000       0.40000000 </v>
   <v>       0.40000000      -0.40000000       0.40000000 </v>
   <v>       0.50000000      -0.40000000       0.40000000 </v>
   <v>      -0.40000000      -0.40000000       0.40000000 </v>
   <v>      -0.30000000      -0.40000000       0.40000000 </v>
   <v>      -0.20000000      -0.40000000       0.40000000 </v>
   <v>      -0.10000000      -0.40000000       0.40000000 </v>
   <v>       0.00000000      -0.30000000       0.40000000 </v>
   <v>       0.10000000      -0.30000000       0.40000000 </v>
   <v>       0.20000000      -0.30000000       0.40000000 </v>
   <v>       0.30000000      -0.30000000       0.40000000 </v>
   <v>       0.40000000      -0.30000000       0.40000000 </v>
   <v>       0.50000000      -0.30000000       0.40000000 </v>
   <v>      -0.40000000      -0.30000000       0.40000000 </v>
   <v>      -0.30000000      -0.30000000       0.40000000 </v>
   <v>      -0.20000000      -0.30000000       0.40000000 </v>
   <v>      -0.10000000      -0.30000000       0.40000000 </v>
   <v>       0.00000000      -0.20000000       0.40000000 </v>
   <v>       0.10000000      -0.20000000       0.40000000 </v>
   <v>       0.20000000      -0.20000000       0.40000000 </v>
   <v>       0.30000000      -0.20000000       0.40000000 </v>
   <v>       0.40000000      -0.20000000       0.40000000 </v>
   <v>       0.50000000      -0.20000000       0.40000000 </v>
   <v>      -0.40000000      -0.20000000       0.40000000 </v>
   <v>      -0.30000000      -0.20000000       0.40000000 </v>
   <v>      -0.20000000      -0.20000000       0.40000000 </v>
   <v>      -0.10000000      -0.20000000       0.40000000 </v>
   <v>       0.00000000      -0.10000000       0.40000000 </v>
   <v>       0.10000000      -0.10000000       0.40000000 </v>
   <v>       0.20000000      -0.10000000       0.40000000 </v>
   <v>       0.30000000      -0.10000000       0.40000000 </v>
   <v>       0.40000000      -0.10000000       0.40000000 </v>
   <v>       0.50000000      -0.10000000       0.40000000 </v>
   <v>      -0.40000000      -0.10000000       0.40000000 </v>
   <v>      -0.30000000      -0.10000000       0.40000000 </v>
   <v>      -0.20000000      -0.10000000       0.40000000 </v>
   <v>      -0.10000000      -0.10000000       0.40000000 </v>
   <v>       0.00000000       0.00000000       0.50000000 </v>
   <v>       0.10000000       0.00000000       0.50000000 </v>
   <v>       0.20000000       0.00000000       0.50000000 </v>
   <v>       0.30000000       0.00000000       0.50000000 </v>
   <v>       0.40000000       0.00000000       0.50000000 </v>
   <v>       0.50000000       0.00000000       0.50000000 </v>
   <v>       0.00000000       0.10000000       0.50000000 </v>
   <v>       0.10000000       0.10000000       0.50000000 </v>
   <v>       0.20000000       0.10000000       0.50000000 </v>
   <v>       0.30000000       0.10000000       0.50000000 </v>
   <v>       0.40000000       0.10000000       0.50000000 </v>
   <v>       0.50000000       0.10000000       0.50000000 </v>
   <v>      -0.40000000       0.10000000       0.50000000 </v>
   <v>      -0.30000000       0.10000000       0.50000000 </v>
   <v>      -0.20000000       0.10000000       0.50000000 </v>
   <v>      -0.10000000       0.10000000       0.50000000 </v>
   <v>       0.00000000       0.20000000       0.50000000 </v>
   <v>       0.10000000       0.20000000       0.50000000 </v>
   <v>       0.20000000       0.20000000       0.50000000 </v>
   <v>       0.30000000       0.20000000       0.50000000 </v>
   <v>       0.40000000       0.20000000       0.50000000 </v>
   <v>       0.50000000       0.20000000       0.50000000 </v>
   <v>      -0.40000000       0.20000000       0.50000000 </v>
   <v>      -0.30000000       0.20000000       0.50000000 </v>
   <v>      -0.20000000       0.20000000       0.50000000 </v>
   <v>      -0.10000000       0.20000000       0.50000000 </v>
   <v>       0.00000000       0.30000000       0.50000000 </v>
   <v>       0.10000000       0.30000000       0.50000000 </v>
   <v>       0.20000000       0.30000000       0.50000000 </v>
   <v>       0.30000000       0.30000000       0.50000000 </v>
   <v>       0.40000000       0.30000000       0.50000000 </v>
   <v>       0.50000000       0.30000000       0.50000000 </v>
   <v>      -0.40000000       0.30000000       0.50000000 </v>
   <v>      -0.30000000       0.30000000       0.50000000 </v>
   <v>      -0.20000000       0.30000000       0.50000000 </v>
   <v>      -0.10000000       0.30000000       0.50000000 </v>
   <v>       0.00000000       0.40000000       0.50000000 </v>
   <v>       0.10000000       0.40000000       0.50000000 </v>
   <v>       0.20000000       0.40000000       0.50000000 </v>
   <v>       0.30000000       0.40000000       0.50000000 </v>
   <v>       0.40000000       0.40000000       0.50000000 </v>
   <v>       0.50000000       0.40000000       0.50000000 </v>
   <v>      -0.40000000       0.40000000       0.50000000 </v>
   <v>      -0.30000000       0.40000000       0.50000000 </v>
   <v>      -0.20000000       0.40000000       0.50000000 </v>
   <v>      -0.10000000       0.40000000       0.50000000 </v>
   <v>       0.00000000       0.50000000       0.50000000 </v>
   <v>       0.10000000       0.50000000       0.50000000 </v>
   <v>       0.20000000       0.50000000       0.50000000 </v>
   <v>       0.30000000       0.50000000       0.50000000 </v>
   <v>       0.40000000       0.50000000       0.50000000 </v>
   <v>       0.50000000       0.50000000       0.50000000 </v>
  </varray>
  <varray name="weights" >
   <v>       0.00100000 </v>
   <v>       0.00200000 </v>
   <v>       0.00200000 </v>
   <v>       0.00200000 </v>
   <v>       0.00200000 </v>
   <v>       0.00100000 </v>
   <v>       0.00200000 </v>
   <v>       0.00200000 </v>
   <v>       0.00200000 </v>
   <v>       0.00200000 </v>
   <v>       0.00200000 </v>
   <v>       0.00200000 </v>
   <v>       0.00200000 </v>
   <v>       0.00200000 </v>
   <v>       0.00200000 </v>
   <v>       0.00200000 </v>
   <v>       0.00200000 </v>
   <v>       0.00200000 </v>
   <v>       0.00200000 </v>
   <v>       0.00200000 </v>
   <v>       0.00200000 </v>
   <v>       0.00200000 </v>
   <v>       0.00200000 </v>
   <v>       0.00200000 </v>
   <v>       0.00200000 </v>
   <v>       0.00200000 </v>
   <v>       0.00200000 </v>
   <v>       0.00200000 </v>
   <v>       0.00200000 </v>
   <v>       0.00200000 </v>
   <v>       0.00200000 </v>
   <v>       0.00200000 </v>
   <v>       0.00200000 </v>
   <v>       0.00200000 </v>
   <v>       0.00200000 </v>
   <v>       0.00200000 </v>
   <v>       0.00200000 </v>
   <v>       0.00200000 </v>
   <v>       0.00200000 </v>
   <v>       0.00200000 </v>
   <v>       0.00200000 </v>
   <v>       0.00200000 </v>
   <v>       0.00200000 </v>
   <v>       0.00200000 </v>
   <v>       0.00200000 </v>
   <v>       0.00200000 </v>
   <v>       0.00100000 </v>
   <v>       0.00200000 </v>
   <v>       0.00200000 </v>
   <v>       0.00200000 </v>
   <v>       0.00200000 </v>
   <v>       0.00100000 </v>
   <v>       0.00200000 </v>
   <v>       0.00200000 </v>
   <v>       0.00200000 </v>
   <v>       0.00200000 </v>
   <v>       0.00200000 </v>
   <v>       0.00200000 </v>
   <v>       0.00200000 </v>
   <v>       0.00200000 </v>
   <v>       0.00200000 </v>
   <v>       0.00200000 </v>
   <v>       0.00200000 </v>
   <v>       0.00200000 </v>
   <v>       0.00200000 </v>
   <v>       0.00200000 </v>
   <v>       0.00200000 </v>
   <v>       0.00200000 </v>
   <v>       0.00200000 </v>
   <v>       0.00200000 </v>
   <v>       0.00200000 </v>
   <v>       0.00200000 </v>
   <v>       0.00200000 </v>
   <v>       0.00200000 </v>
   <v>       0.00200000 </v>
   <v>       0.00200000 </v>
   <v>       0.00200000 </v>
   <v>       0.00200000 </v>
   <v>       0.00200000 </v>
   <v>       0.00200000 </v>
   <v>       0.00200000 </v>
   <v>       0.00200000 </v>
   <v>       0.00200000 </v>
   <v>       0.00200000 </v>
   <v>       0.00200000 </v>
   <v>       0.00200000 </v>
   <v>       0.00200000 </v>
   <v>       0.00200000 </v>
   <v>       0.00200000 </v>
   <v>       0.00200000 </v>
   <v>       0.00200000 </v>
   <v>       0.00200000 </v>
   <v>       0.00200000 </v>
   <v>       0.00200000 </v>
   <v>       0.00200000 </v>
   <v>       0.00200000 </v>
   <v>       0.00200000 </v>
   <v>       0.00200000 </v>
   <v>       0.00200000 </v>
   <v>       0.00200000 </v>
   <v>       0.00200000 </v>
   <v>       0.00200000 </v>
   <v>       0.00200000 </v>
   <v>       0.00200000 </v>
   <v>       0.00200000 </v>
   <v>       0.00200000 </v>
   <v>       0.00200000 </v>
   <v>       0.00200000 </v>
   <v>       0.00200000 </v>
   <v>       0.00200000 </v>
   <v>       0.00200000 </v>
   <v>       0.00200000 </v>
   <v>       0.00200000 </v>
   <v>       0.00200000 </v>
   <v>       0.00200000 </v>
   <v>       0.00200000 </v>
   <v>       0.00200000 </v>
   <v>       0.00200000 </v>
   <v>       0.00200000 </v>
   <v>       0.00200000 </v>
   <v>       0.00200000 </v>
   <v>       0.00200000 </v>
   <v>       0.00200000 </v>
   <v>       0.00200000 </v>
   <v>       0.00200000 </v>
   <v>       0.00200000 </v>
   <v>       0.00200000 </v>
   <v>       0.00200000 </v>
   <v>       0.00200000 </v>
   <v>       0.00200000 </v>
   <v>       0.00200000 </v>
   <v>       0.00200000 </v>
   <v>       0.00200000 </v>
   <v>       0.00200000 </v>
   <v>       0.00200000 </v>
   <v>       0.00200000 </v>
   <v>       0.00200000 </v>
   <v>       0.00200000 </v>
   <v>       0.00200000 </v>
   <v>       0.00200000 </v>
   <v>       0.00200000 </v>
   <v>       0.00200000 </v>
   <v>       0.00200000 </v>
   <v>       0.00200000 </v>
   <v>       0.00200000 </v>
   <v>       0.00200000 </v>
   <v>       0.00200000 </v>
   <v>       0.00200000 </v>
   <v>       0.00200000 </v>
   <v>       0.00200000 </v>
   <v>       0.00200000 </v>
   <v>       0.00200000 </v>
   <v>       0.00200000 </v>
   <v>       0.00200000 </v>
   <v>       0.00200000 </v>
   <v>       0.00200000 </v>
   <v>       0.00200000 </v>
   <v>       0.00200000 </v>
   <v>       0.00200000 </v>
   <v>       0.00200000 </v>
   <v>       0.00200000 </v>
   <v>       0.00200000 </v>
   <v>       0.00200000 </v>
   <v>       0.00200000 </v>
   <v>       0.00200000 </v>
   <v>       0.00200000 </v>
   <v>       0.00200000 </v>
   <v>       0.00200000 </v>
   <v>       0.00200000 </v>
   <v>       0.00200000 </v>
   <v>       0.00200000 </v>
   <v>       0.00200000 </v>
   <v>       0.00200000 </v>
   <v>       0.00200000 </v>
   <v>       0.00200000 </v>
   <v>       0.00200000 </v>
   <v>       0.00200000 </v>
   <v>       0.00200000 </v>
   <v>       0.00200000 </v>
   <v>       0.00200000 </v>
   <v>       0.00200000 </v>
   <v>       0.00200000 </v>
   <v>       0.00200000 </v>
   <v>       0.00200000 </v>
   <v>       0.00200000 </v>
   <v>       0.00200000 </v>
   <v>       0.00200000 </v>
   <v>       0.00200000 </v>
   <v>       0.00200000 </v>
   <v>       0.00200000 </v>
   <v>       0.00200000 </v>
   <v>       0.00200000 </v>
   <v>       0.00200000 </v>
   <v>       0.00200000 </v>
   <v>       0.00200000 </v>
   <v>       0.00200000 </v>
   <v>       0.00200000 </v>
   <v>       0.00200000 </v>
   <v>       0.00200000 </v>
   <v>       0.00200000 </v>
   <v>       0.00200000 </v>
   <v>       0.00200000 </v>
   <v>       0.00200000 </v>
   <v>       0.00200000 </v>
   <v>       0.00200000 </v>
   <v>       0.00200000 </v>
   <v>       0.00200000 </v>
   <v>       0.00200000 </v>
   <v>       0.00200000 </v>
   <v>       0.00200000 </v>
   <v>       0.00200000 </v>
   <v>       0.00200000 </v>
   <v>       0.00200000 </v>
   <v>       0.00200000 </v>
   <v>       0.00200000 </v>
   <v>       0.00200000 </v>
   <v>       0.00200000 </v>
   <v>       0.00200000 </v>
   <v>       0.00200000 </v>
   <v>       0.00200000 </v>
   <v>       0.00200000 </v>
   <v>       0.00200000 </v>
   <v>       0.00200000 </v>
   <v>       0.00200000 </v>
   <v>       0.00200000 </v>
   <v>       0.00200000 </v>
   <v>       0.00200000 </v>
   <v>       0.00200000 </v>
   <v>       0.00200000 </v>
   <v>       0.00200000 </v>
   <v>       0.00200000 </v>
   <v>       0.00200000 </v>
   <v>       0.00200000 </v>
   <v>       0.00200000 </v>
   <v>       0.00200000 </v>
   <v>       0.00200000 </v>
   <v>       0.00200000 </v>
   <v>       0.00200000 </v>
   <v>       0.00200000 </v>
   <v>       0.00200000 </v>
   <v>       0.00200000 </v>
   <v>       0.00200000 </v>
   <v>       0.00200000 </v>
   <v>       0.00200000 </v>
   <v>       0.00200000 </v>
   <v>       0.00200000 </v>
   <v>       0.00200000 </v>
   <v>       0.00200000 </v>
   <v>       0.00200000 </v>
   <v>       0.00200000 </v>
   <v>       0.00200000 </v>
   <v>       0.00200000 </v>
   <v>       0.00200000 </v>
   <v>       0.00200000 </v>
   <v>       0.00200000 </v>
   <v>       0.00200000 </v>
   <v>       0.00200000 </v>
   <v>       0.00200000 </v>
   <v>       0.00200000 </v>
   <v>       0.00200000 </v>
   <v>       0.00200000 </v>
   <v>       0.00200000 </v>
   <v>       0.00200000 </v>
   <v>       0.00200000 </v>
   <v>       0.00200000 </v>
   <v>       0.00200000 </v>
   <v>       0.00200000 </v>
   <v>       0.00200000 </v>
   <v>       0.00200000 </v>
   <v>       0.00200000 </v>
   <v>       0.00200000 </v>
   <v>       0.00200000 </v>
   <v>       0.00200000 </v>
   <v>       0.00200000 </v>
   <v>       0.00200000 </v>
   <v>       0.00200000 </v>
   <v>       0.00200000 </v>
   <v>       0.00200000 </v>
   <v>       0.00200000 </v>
   <v>       0.00200000 </v>
   <v>       0.00200000 </v>
   <v>       0.00200000 </v>
   <v>       0.00200000 </v>
   <v>       0.00200000 </v>
   <v>       0.00200000 </v>
   <v>       0.00200000 </v>
   <v>       0.00200000 </v>
   <v>       0.00200000 </v>
   <v>       0.00200000 </v>
   <v>       0.00200000 </v>
   <v>       0.00200000 </v>
   <v>       0.00200000 </v>
   <v>       0.00200000 </v>
   <v>       0.00200000 </v>
   <v>       0.00200000 </v>
   <v>       0.00200000 </v>
   <v>       0.00200000 </v>
   <v>       0.00200000 </v>
   <v>       0.00200000 </v>
   <v>       0.00200000 </v>
   <v>       0.00200000 </v>
   <v>       0.00200000 </v>
   <v>       0.00200000 </v>
   <v>       0.00200000 </v>
   <v>       0.00200000 </v>
   <v>       0.00200000 </v>
   <v>       0.00200000 </v>
   <v>       0.00200000 </v>
   <v>       0.00200000 </v>
   <v>       0.00200000 </v>
   <v>       0.00200000 </v>
   <v>       0.00200000 </v>
   <v>       0.00200000 </v>
   <v>       0.00200000 </v>
   <v>       0.00200000 </v>
   <v>       0.00200000 </v>
   <v>       0.00200000 </v>
   <v>       0.00200000 </v>
   <v>       0.00200000 </v>
   <v>       0.00200000 </v>
   <v>       0.00200000 </v>
   <v>       0.00200000 </v>
   <v>       0.00200000 </v>
   <v>       0.00200000 </v>
   <v>       0.00200000 </v>
   <v>       0.00200000 </v>
   <v>       0.00200000 </v>
   <v>       0.00200000 </v>
   <v>       0.00200000 </v>
   <v>       0.00200000 </v>
   <v>       0.00200000 </v>
   <v>       0.00200000 </v>
   <v>       0.00200000 </v>
   <v>       0.00200000 </v>
   <v>       0.00200000 </v>
   <v>       0.00200000 </v>
   <v>       0.00200000 </v>
   <v>       0.00200000 </v>
   <v>       0.00200000 </v>
   <v>       0.00200000 </v>
   <v>       0.00200000 </v>
   <v>       0.00200000 </v>
   <v>       0.00200000 </v>
   <v>       0.00200000 </v>
   <v>       0.00200000 </v>
   <v>       0.00200000 </v>
   <v>       0.00200000 </v>
   <v>       0.00200000 </v>
   <v>       0.00200000 </v>
   <v>       0.00200000 </v>
   <v>       0.00200000 </v>
   <v>       0.00200000 </v>
   <v>       0.00200000 </v>
   <v>       0.00200000 </v>
   <v>       0.00200000 </v>
   <v>       0.00200000 </v>
   <v>       0.00200000 </v>
   <v>       0.00200000 </v>
   <v>       0.00200000 </v>
   <v>       0.00200000 </v>
   <v>       0.00200000 </v>
   <v>       0.00200000 </v>
   <v>       0.00200000 </v>
   <v>       0.00200000 </v>
   <v>       0.00200000 </v>
   <v>       0.00200000 </v>
   <v>       0.00200000 </v>
   <v>       0.00200000 </v>
   <v>       0.00200000 </v>
   <v>       0.00200000 </v>
   <v>       0.00200000 </v>
   <v>       0.00200000 </v>
   <v>       0.00200000 </v>
   <v>       0.00200000 </v>
   <v>       0.00200000 </v>
   <v>       0.00200000 </v>
   <v>       0.00200000 </v>
   <v>       0.00200000 </v>
   <v>       0.00200000 </v>
   <v>       0.00200000 </v>
   <v>       0.00200000 </v>
   <v>       0.00200000 </v>
   <v>       0.00200000 </v>
   <v>       0.00200000 </v>
   <v>       0.00200000 </v>
   <v>       0.00200000 </v>
   <v>       0.00200000 </v>
   <v>       0.00200000 </v>
   <v>       0.00200000 </v>
   <v>       0.00200000 </v>
   <v>       0.00200000 </v>
   <v>       0.00200000 </v>
   <v>       0.00200000 </v>
   <v>       0.00200000 </v>
   <v>       0.00200000 </v>
   <v>       0.00200000 </v>
   <v>       0.00200000 </v>
   <v>       0.00200000 </v>
   <v>       0.00200000 </v>
   <v>       0.00200000 </v>
   <v>       0.00200000 </v>
   <v>       0.00200000 </v>
   <v>       0.00200000 </v>
   <v>       0.00200000 </v>
   <v>       0.00200000 </v>
   <v>       0.00200000 </v>
   <v>       0.00200000 </v>
   <v>       0.00200000 </v>
   <v>       0.00200000 </v>
   <v>       0.00200000 </v>
   <v>       0.00200000 </v>
   <v>       0.00200000 </v>
   <v>       0.00200000 </v>
   <v>       0.00200000 </v>
   <v>       0.00200000 </v>
   <v>       0.00200000 </v>
   <v>       0.00200000 </v>
   <v>       0.00200000 </v>
   <v>       0.00200000 </v>
   <v>       0.00200000 </v>
   <v>       0.00200000 </v>
   <v>       0.00200000 </v>
   <v>       0.00200000 </v>
   <v>       0.00200000 </v>
   <v>       0.00200000 </v>
   <v>       0.00200000 </v>
   <v>       0.00200000 </v>
   <v>       0.00200000 </v>
   <v>       0.00200000 </v>
   <v>       0.00200000 </v>
   <v>       0.00200000 </v>
   <v>       0.00200000 </v>
   <v>       0.00200000 </v>
   <v>       0.00200000 </v>
   <v>       0.00200000 </v>
   <v>       0.00200000 </v>
   <v>       0.00200000 </v>
   <v>       0.00200000 </v>
   <v>       0.00200000 </v>
   <v>       0.00200000 </v>
   <v>       0.00200000 </v>
   <v>       0.00200000 </v>
   <v>       0.00200000 </v>
   <v>       0.00200000 </v>
   <v>       0.00200000 </v>
   <v>       0.00200000 </v>
   <v>       0.00200000 </v>
   <v>       0.00200000 </v>
   <v>       0.00200000 </v>
   <v>       0.00200000 </v>
   <v>       0.00200000 </v>
   <v>       0.00200000 </v>
   <v>       0.00100000 </v>
   <v>       0.00200000 </v>
   <v>       0.00200000 </v>
   <v>       0.00200000 </v>
   <v>       0.00200000 </v>
   <v>       0.00100000 </v>
   <v>       0.00200000 </v>
   <v>       0.00200000 </v>
   <v>       0.00200000 </v>
   <v>       0.00200000 </v>
   <v>       0.00200000 </v>
   <v>       0.00200000 </v>
   <v>       0.00200000 </v>
   <v>       0.00200000 </v>
   <v>       0.00200000 </v>
   <v>       0.00200000 </v>
   <v>       0.00200000 </v>
   <v>       0.00200000 </v>
   <v>       0.00200000 </v>
   <v>       0.00200000 </v>
   <v>       0.00200000 </v>
   <v>       0.00200000 </v>
   <v>       0.00200000 </v>
   <v>       0.00200000 </v>
   <v>       0.00200000 </v>
   <v>       0.00200000 </v>
   <v>       0.00200000 </v>
   <v>       0.00200000 </v>
   <v>       0.00200000 </v>
   <v>       0.00200000 </v>
   <v>       0.00200000 </v>
   <v>       0.00200000 </v>
   <v>       0.00200000 </v>
   <v>       0.00200000 </v>
   <v>       0.00200000 </v>
   <v>       0.00200000 </v>
   <v>       0.00200000 </v>
   <v>       0.00200000 </v>
   <v>       0.00200000 </v>
   <v>       0.00200000 </v>
   <v>       0.00200000 </v>
   <v>       0.00200000 </v>
   <v>       0.00200000 </v>
   <v>       0.00200000 </v>
   <v>       0.00200000 </v>
   <v>       0.00200000 </v>
   <v>       0.00100000 </v>
   <v>       0.00200000 </v>
   <v>       0.00200000 </v>
   <v>       0.00200000 </v>
   <v>       0.00200000 </v>
   <v>       0.00100000 </v>
  </varray>
 </kpoints>
 <parameters>
  <separator name="general" >
   <i type="string" name="SYSTEM">ice</i>
   <i type="logical" name="LCOMPAT"> F  </i>
  </separator>
  <separator name="electronic" >
   <i type="string" name="PREC">normal</i>
   <i name="ENMAX">    400.00000000</i>
   <i name="ENAUG">    605.39200000</i>
   <i name="EDIFF">      0.00000100</i>
   <i type="int" name="IALGO">    48</i>
   <i type="int" name="IWAVPR">    10</i>
   <i type="int" name="NBANDS">   172</i>
   <i name="NELECT">    248.00000000</i>
   <i type="int" name="TURBO">     0</i>
   <i type="int" name="IRESTART">     0</i>
   <i type="int" name="NREBOOT">     0</i>
   <i type="int" name="NMIN">     0</i>
   <i name="EREF">      0.00000000</i>
   <separator name="electronic smearing" >
    <i type="int" name="ISMEAR">    -1</i>
    <i name="SIGMA">      0.05000000</i>
    <i name="KSPACING">      0.50000000</i>
    <i type="logical" name="KGAMMA"> T  </i>
   </separator>
   <separator name="electronic projectors" >
    <i type="logical" name="LREAL"> T  </i>
    <v name="ROPT">     -0.00050000     -0.00050000</v>
    <i type="int" name="LMAXPAW">  -100</i>
    <i type="int" name="LMAXMIX">     2</i>
    <i type="logical" name="NLSPLINE"> F  </i>
   </separator>
   <separator name="electronic startup" >
    <i type="int" name="ISTART">     0</i>
    <i type="int" name="ICHARG">     1</i>
    <i type="int" name="INIWAV">     1</i>
   </separator>
   <separator name="electronic spin" >
    <i type="int" name="ISPIN">     1</i>
    <i type="logical" name="LNONCOLLINEAR"> F  </i>
    <v name="MAGMOM">      1.00000000      1.00000000      1.00000000      1.00000000      1.00000000      1.00000000      1.00000000      1.00000000      1.00000000      1.00000000      1.00000000      1.00000000      1.00000000      1.00000000      1.00000000      1.00000000      1.00000000      1.00000000      1.00000000      1.00000000
      1.00000000      1.00000000      1.00000000      1.00000000      1.00000000      1.00000000      1.00000000      1.00000000      1.00000000      1.00000000      1.00000000      1.00000000      1.00000000      1.00000000      1.00000000      1.00000000      1.00000000      1.00000000      1.00000000      1.00000000
      1.00000000      1.00000000      1.00000000      1.00000000      1.00000000      1.00000000      1.00000000      1.00000000      1.00000000      1.00000000      1.00000000      1.00000000      1.00000000      1.00000000      1.00000000      1.00000000      1.00000000      1.00000000      1.00000000      1.00000000
      1.00000000      1.00000000      1.00000000      1.00000000      1.00000000      1.00000000      1.00000000      1.00000000      1.00000000      1.00000000      1.00000000      1.00000000      1.00000000      1.00000000      1.00000000      1.00000000      1.00000000      1.00000000      1.00000000      1.00000000
      1.00000000      1.00000000      1.00000000      1.00000000      1.00000000      1.00000000      1.00000000      1.00000000      1.00000000      1.00000000      1.00000000      1.00000000      1.00000000</v>
    <i name="NUPDOWN">     -1.00000000</i>
    <i type="logical" name="LSORBIT"> F  </i>
    <v name="SAXIS">      0.00000000      0.00000000      1.00000000</v>
    <i type="logical" name="LSPIRAL"> F  </i>
    <v name="QSPIRAL">      0.00000000      0.00000000      0.00000000</v>
    <i type="logical" name="LZEROZ"> F  </i>
   </separator>
   <separator name="electronic exchange-correlation" >
    <i type="logical" name="LASPH"> F  </i>
    <i type="logical" name="LMETAGGA"> F  </i>
   </separator>
   <separator name="electronic convergence" >
    <i type="int" name="NELM">   500</i>
    <i type="int" name="NELMDL">     0</i>
    <i type="int" name="NELMIN">     4</i>
    <i name="ENINI">    400.00000000</i>
    <separator name="electronic convergence detail" >
     <i type="logical" name="LDIAG"> T  </i>
     <i type="logical" name="LSUBROT"> F  </i>
     <i name="WEIMIN">      0.00000000</i>
     <i name="EBREAK">      0.00000000</i>
     <i name="DEPER">      0.30000000</i>
     <i type="int" name="NRMM">     4</i>
     <i name="TIME">      0.40000000</i>
    </separator>
   </separator>
   <separator name="electronic mixer" >
    <i name="AMIX">      0.40000000</i>
    <i name="BMIX">      1.00000000</i>
    <i name="AMIN">      0.10000000</i>
    <i name="AMIX_MAG">      1.60000000</i>
    <i name="BMIX_MAG">      1.00000000</i>
    <separator name="electronic mixer details" >
     <i type="int" name="IMIX">     4</i>
     <i type="logical" name="MIXFIRST"> F  </i>
     <i type="int" name="MAXMIX">    40</i>
     <i name="WC">    100.00000000</i>
     <i type="int" name="INIMIX">     1</i>
     <i type="int" name="MIXPRE">     1</i>
     <i type="int" name="MREMOVE">     5</i>
    </separator>
   </separator>
   <separator name="electronic dipolcorrection" >
    <i type="logical" name="LDIPOL"> F  </i>
    <i type="logical" name="LMONO"> F  </i>
    <i type="int" name="IDIPOL">     0</i>
    <i name="EPSILON">      1.00000000</i>
    <v name="DIPOL">   -100.00000000   -100.00000000   -100.00000000</v>
    <i name="EFIELD">      0.00000000</i>
   </separator>
  </separator>
  <separator name="grids" >
   <i type="int" name="NGX">    48</i>
   <i type="int" name="NGY">    48</i>
   <i type="int" name="NGZ">    48</i>
   <i type="int" name="NGXF">    96</i>
   <i type="int" name="NGYF">    96</i>
   <i type="int" name="NGZF">    96</i>
   <i type="logical" name="ADDGRID"> F  </i>
  </separator>
  <separator name="ionic" >
   <i type="int" name="NSW">     0</i>
   <i type="int" name="IBRION">    -1</i>
   <i type="int" name="MDALGO">     0</i>
   <i type="int" name="ISIF">     2</i>
   <i name="PSTRESS">      0.00000000</i>
   <i name="EDIFFG">      0.00001000</i>
   <i type="int" name="NFREE">     0</i>
   <i name="POTIM">      0.50000000</i>
   <i name="SMASS">     -3.00000000</i>
   <i name="SCALEE">      1.00000000</i>
  </separator>
  <separator name="ionic md" >
   <i name="TEBEG">      0.00010000</i>
   <i name="TEEND">      0.00010000</i>
   <i type="int" name="NBLOCK">     1</i>
   <i type="int" name="KBLOCK">     1</i>
   <i type="int" name="NPACO">   256</i>
   <i name="APACO">     16.00000000</i>
  </separator>
  <separator name="symmetry" >
   <i type="int" name="ISYM">     2</i>
   <i name="SYMPREC">      0.00001000</i>
  </separator>
  <separator name="dos" >
   <i type="int" name="LORBIT">     0</i>
   <v name="RWIGS">     -1.00000000     -1.00000000</v>
   <i type="int" name="NEDOS">   301</i>
   <i name="EMIN">     10.00000000</i>
   <i name="EMAX">    -10.00000000</i>
   <i name="EFERMI">      0.00000000</i>
  </separator>
  <separator name="writing" >
   <i type="int" name="NWRITE">     0</i>
   <i type="logical" name="LWAVE"> F  </i>
   <i type="logical" name="LDOWNSAMPLE"> F  </i>
   <i type="logical" name="LCHARG"> F  </i>
   <i type="logical" name="LPARD"> F  </i>
   <i type="logical" name="LVTOT"> F  </i>
   <i type="logical" name="LVHAR"> T  </i>
   <i type="logical" name="LELF"> F  </i>
   <i type="logical" name="LOPTICS"> F  </i>
   <v name="STM">      0.00000000      0.00000000      0.00000000      0.00000000      0.00000000      0.00000000      0.00000000</v>
  </separator>
  <separator name="performance" >
   <i type="int" name="NPAR">     2</i>
   <i type="int" name="NSIM">     4</i>
   <i type="int" name="NBLK">    -1</i>
   <i type="logical" name="LPLANE"> T  </i>
   <i type="logical" name="LSCALAPACK"> T  </i>
   <i type="logical" name="LSCAAWARE"> F  </i>
   <i type="logical" name="LSCALU"> F  </i>
   <i type="logical" name="LASYNC"> F  </i>
   <i type="logical" name="LORBITALREAL"> F  </i>
  </separator>
  <separator name="miscellaneous" >
   <i type="int" name="IDIOT">     3</i>
   <i type="int" name="ISPECIAL">     0</i>
   <i type="logical" name="LMUSIC"> F  </i>
   <v name="POMASS">     16.00000000      1.00000000</v>
   <v name="DARWINR">      0.00000000      0.00000000</v>
   <v name="DARWINV">      1.00000000      1.00000000</v>
   <i type="logical" name="LCORR"> T  </i>
  </separator>
  <i type="logical" name="GGA_COMPAT"> T  </i>
  <i type="logical" name="LBERRY"> F  </i>
  <i type="int" name="ICORELEVEL">     0</i>
  <i type="logical" name="LDAU"> F  </i>
  <i type="int" name="I_CONSTRAINED_M">     0</i>
  <separator name="electronic exchange-correlation" >
   <i type="string" name="GGA">--</i>
   <i type="int" name="VOSKOWN">     0</i>
   <i type="logical" name="LHFCALC"> F  </i>
   <i type="string" name="PRECFOCK"></i>
   <i type="logical" name="LSYMGRAD"> F  </i>
   <i type="logical" name="LHFONE"> F  </i>
   <i type="logical" name="LRHFCALC"> F  </i>
   <i type="logical" name="LTHOMAS"> F  </i>
   <i type="logical" name="LMODELHF"> F  </i>
   <i name="ENCUT4O">     -1.00000000</i>
   <i type="int" name="EXXOEP">     0</i>
   <i type="int" name="FOURORBIT">     0</i>
   <i name="AEXX">      0.00000000</i>
   <i name="HFALPHA">      0.00000000</i>
   <i name="MCALPHA">      0.00000000</i>
   <i name="ALDAX">      1.00000000</i>
   <i name="AGGAX">      1.00000000</i>
   <i name="ALDAC">      1.00000000</i>
   <i name="AGGAC">      1.00000000</i>
   <i type="int" name="NKREDX">     1</i>
   <i type="int" name="NKREDY">     1</i>
   <i type="int" name="NKREDZ">     1</i>
   <i type="logical" name="SHIFTRED"> F  </i>
   <i type="logical" name="ODDONLY"> F  </i>
   <i type="logical" name="EVENONLY"> F  </i>
   <i type="int" name="LMAXFOCK">     0</i>
   <i type="int" name="NMAXFOCKAE">     0</i>
   <i type="logical" name="LFOCKAEDFT"> F  </i>
   <i name="HFSCREEN">      0.00000000</i>
   <i name="HFSCREENC">      0.00000000</i>
   <i type="int" name="NBANDSGWLOW">     0</i>
  </separator>
  <separator name="vdW DFT" >
   <i type="logical" name="LUSE_VDW"> F  </i>
   <i name="Zab_VDW">     -0.84910000</i>
   <i name="PARAM1">      0.12340000</i>
   <i name="PARAM2">      1.00000000</i>
   <i name="PARAM3">      0.00000000</i>
  </separator>
  <separator name="model GW" >
   <i type="int" name="MODEL_GW">     0</i>
   <i name="MODEL_EPS0">      6.09994528</i>
   <i name="MODEL_ALPHA">      1.00000000</i>
  </separator>
  <separator name="linear response parameters" >
   <i type="logical" name="LEPSILON"> F  </i>
   <i type="logical" name="LRPA"> F  </i>
   <i type="logical" name="LNABLA"> F  </i>
   <i type="logical" name="LVEL"> F  </i>
   <i type="int" name="KINTER">     0</i>
   <i name="CSHIFT">      0.10000000</i>
   <i name="OMEGAMAX">     -1.00000000</i>
   <i name="DEG_THRESHOLD">      0.00200000</i>
   <i name="RTIME">     -0.10000000</i>
   <i name="WPLASMAI">      0.00000000</i>
   <v name="DFIELD">      0.00000000      0.00000000      0.00000000</v>
   <v name="WPLASMA">      0.00000000      0.00000000      0.00000000      0.00000000      0.00000000      0.00000000      0.00000000      0.00000000      0.00000000</v>
  </separator>
  <separator name="orbital magnetization" >
   <i type="logical" name="NUCIND"> F  </i>
   <v name="MAGPOS">      0.00000000      0.00000000      0.00000000</v>
   <i type="logical" name="LNICSALL"> T  </i>
   <i type="logical" name="ORBITALMAG"> F  </i>
   <i type="logical" name="LMAGBLOCH"> F  </i>
   <i type="logical" name="LCHIMAG"> F  </i>
   <i type="logical" name="LGAUGE"> T  </i>
   <i type="int" name="MAGATOM">     0</i>
   <v name="MAGDIPOL">      0.00000000      0.00000000      0.00000000</v>
   <v name="AVECCONST">      0.00000000      0.00000000      0.00000000</v>
  </separator>
  <separator name="response functions" >
   <i type="logical" name="LADDER"> F  </i>
   <i type="logical" name="LRPAFORCE"> F  </i>
   <i type="logical" name="LFXC"> F  </i>
   <i type="logical" name="LHARTREE"> T  </i>
   <i type="int" name="IBSE">     0</i>
   <v type="int" name="KPOINT">    -1     0     0     0</v>
   <i type="logical" name="LTCTE"> F  </i>
   <i type="logical" name="LTETE"> F  </i>
   <i type="logical" name="LTRIPLET"> F  </i>
   <i type="logical" name="LFXCEPS"> F  </i>
   <i type="logical" name="LFXHEG"> F  </i>
   <i type="int" name="NATURALO">     2</i>
   <i type="logical" name="L2ORDER"> F  </i>
   <i type="logical" name="LMP2LT"> F  </i>
   <i type="logical" name="LUSEW"> F  </i>
   <i name="ENCUTGW">     -2.00000000</i>
   <i name="ENCUTGWSOFT">     -2.00000000</i>
   <i name="ENCUTLF">     -1.00000000</i>
   <i type="int" name="LMAXMP2">    -1</i>
   <i name="SCISSOR">      0.00000000</i>
   <i type="int" name="NOMEGA">     0</i>
   <i type="int" name="NOMEGAR">     0</i>
   <i type="int" name="NBANDSGW">    -1</i>
   <i type="int" name="NBANDSO">    -1</i>
   <i type="int" name="NBANDSV">    -1</i>
   <i type="int" name="NELM">   500</i>
   <i type="int" name="NELMHF">     1</i>
   <i type="int" name="DIM">     3</i>
   <i type="int" name="ANTIRES">     0</i>
   <i name="OMEGAMAX">    -30.00000000</i>
   <i name="OMEGAMIN">    -30.00000000</i>
   <i name="OMEGATL">   -200.00000000</i>
   <i type="int" name="OMEGAGRID">   140</i>
   <i name="CSHIFT">     -0.10000000</i>
   <i type="logical" name="SELFENERGY"> F  </i>
   <i type="logical" name="LSPECTRAL"> F  </i>
   <i type="logical" name="LSPECTRALGW"> F  </i>
   <i type="logical" name="LSINGLES"> F  </i>
   <i type="logical" name="LFERMIGW"> F  </i>
   <i type="logical" name="ODDONLYGW"> F  </i>
   <i type="logical" name="EVENONLYGW"> F  </i>
   <i type="int" name="NKREDLFX">     1</i>
   <i type="int" name="NKREDLFY">     1</i>
   <i type="int" name="NKREDLFZ">     1</i>
   <i type="int" name="MAXMEM">  2800</i>
   <i type="int" name="TELESCOPE">     0</i>
   <i type="int" name="TAUPAR">     1</i>
   <i type="int" name="OMEGAPAR">    -1</i>
   <i name="LAMBDA">      1.00000000</i>
  </separator>
  <separator name="External order field" >
   <i name="OFIELD_KAPPA">      0.00000000</i>
   <v name="OFIELD_K">      0.00000000      0.00000000      0.00000000</v>
   <i name="OFIELD_Q6_NEAR">      0.00000000</i>
   <i name="OFIELD_Q6_FAR">      0.00000000</i>
   <i name="OFIELD_A">      0.00000000</i>
  </separator>
 </parameters>
 <atominfo>
  <atoms>      93 </atoms>
  <types>       2 </types>
  <array name="atoms" >
   <dimension dim="1">ion</dimension>
   <field type="string">element</field>
   <field type="int">atomtype</field>
   <set>
    <rc><c>O </c><c>   1</c></rc>
    <rc><c>O </c><c>   1</c></rc>
    <rc><c>O </c><c>   1</c></rc>
    <rc><c>O </c><c>   1</c></rc>
    <rc><c>O </c><c>   1</c></rc>
    <rc><c>O </c><c>   1</c></rc>
    <rc><c>O </c><c>   1</c></rc>
    <rc><c>O </c><c>   1</c></rc>
    <rc><c>O </c><c>   1</c></rc>
    <rc><c>O </c><c>   1</c></rc>
    <rc><c>O </c><c>   1</c></rc>
    <rc><c>O </c><c>   1</c></rc>
    <rc><c>O </c><c>   1</c></rc>
    <rc><c>O </c><c>   1</c></rc>
    <rc><c>O </c><c>   1</c></rc>
    <rc><c>O </c><c>   1</c></rc>
    <rc><c>O </c><c>   1</c></rc>
    <rc><c>O </c><c>   1</c></rc>
    <rc><c>O </c><c>   1</c></rc>
    <rc><c>O </c><c>   1</c></rc>
    <rc><c>O </c><c>   1</c></rc>
    <rc><c>O </c><c>   1</c></rc>
    <rc><c>O </c><c>   1</c></rc>
    <rc><c>O </c><c>   1</c></rc>
    <rc><c>O </c><c>   1</c></rc>
    <rc><c>O </c><c>   1</c></rc>
    <rc><c>O </c><c>   1</c></rc>
    <rc><c>O </c><c>   1</c></rc>
    <rc><c>O </c><c>   1</c></rc>
    <rc><c>O </c><c>   1</c></rc>
    <rc><c>O </c><c>   1</c></rc>
    <rc><c>H </c><c>   2</c></rc>
    <rc><c>H </c><c>   2</c></rc>
    <rc><c>H </c><c>   2</c></rc>
    <rc><c>H </c><c>   2</c></rc>
    <rc><c>H </c><c>   2</c></rc>
    <rc><c>H </c><c>   2</c></rc>
    <rc><c>H </c><c>   2</c></rc>
    <rc><c>H </c><c>   2</c></rc>
    <rc><c>H </c><c>   2</c></rc>
    <rc><c>H </c><c>   2</c></rc>
    <rc><c>H </c><c>   2</c></rc>
    <rc><c>H </c><c>   2</c></rc>
    <rc><c>H </c><c>   2</c></rc>
    <rc><c>H </c><c>   2</c></rc>
    <rc><c>H </c><c>   2</c></rc>
    <rc><c>H </c><c>   2</c></rc>
    <rc><c>H </c><c>   2</c></rc>
    <rc><c>H </c><c>   2</c></rc>
    <rc><c>H </c><c>   2</c></rc>
    <rc><c>H </c><c>   2</c></rc>
    <rc><c>H </c><c>   2</c></rc>
    <rc><c>H </c><c>   2</c></rc>
    <rc><c>H </c><c>   2</c></rc>
    <rc><c>H </c><c>   2</c></rc>
    <rc><c>H </c><c>   2</c></rc>
    <rc><c>H </c><c>   2</c></rc>
    <rc><c>H </c><c>   2</c></rc>
    <rc><c>H </c><c>   2</c></rc>
    <rc><c>H </c><c>   2</c></rc>
    <rc><c>H </c><c>   2</c></rc>
    <rc><c>H </c><c>   2</c></rc>
    <rc><c>H </c><c>   2</c></rc>
    <rc><c>H </c><c>   2</c></rc>
    <rc><c>H </c><c>   2</c></rc>
    <rc><c>H </c><c>   2</c></rc>
    <rc><c>H </c><c>   2</c></rc>
    <rc><c>H </c><c>   2</c></rc>
    <rc><c>H </c><c>   2</c></rc>
    <rc><c>H </c><c>   2</c></rc>
    <rc><c>H </c><c>   2</c></rc>
    <rc><c>H </c><c>   2</c></rc>
    <rc><c>H </c><c>   2</c></rc>
    <rc><c>H </c><c>   2</c></rc>
    <rc><c>H </c><c>   2</c></rc>
    <rc><c>H </c><c>   2</c></rc>
    <rc><c>H </c><c>   2</c></rc>
    <rc><c>H </c><c>   2</c></rc>
    <rc><c>H </c><c>   2</c></rc>
    <rc><c>H </c><c>   2</c></rc>
    <rc><c>H </c><c>   2</c></rc>
    <rc><c>H </c><c>   2</c></rc>
    <rc><c>H </c><c>   2</c></rc>
    <rc><c>H </c><c>   2</c></rc>
    <rc><c>H </c><c>   2</c></rc>
    <rc><c>H </c><c>   2</c></rc>
    <rc><c>H </c><c>   2</c></rc>
    <rc><c>H </c><c>   2</c></rc>
    <rc><c>H </c><c>   2</c></rc>
    <rc><c>H </c><c>   2</c></rc>
    <rc><c>H </c><c>   2</c></rc>
    <rc><c>H </c><c>   2</c></rc>
    <rc><c>H </c><c>   2</c></rc>
   </set>
  </array>
  <array name="atomtypes" >
   <dimension dim="1">type</dimension>
   <field type="int">atomspertype</field>
   <field type="string">element</field>
   <field>mass</field>
   <field>valence</field>
   <field type="string">pseudopotential</field>
   <set>
    <rc><c>  31</c><c>O </c><c>     16.00000000</c><c>      6.00000000</c><c>  PAW_PBE O 08Apr2002                   </c></rc>
    <rc><c>  62</c><c>H </c><c>      1.00000000</c><c>      1.00000000</c><c>  PAW_PBE H 15Jun2001                   </c></rc>
   </set>
  </array>
 </atominfo>
 <structure name="initialpos" >
  <crystal>
   <varray name="basis" >
    <v>       9.81490000       0.00000000       0.00000000 </v>
    <v>       0.00000000       9.81490000       0.00000000 </v>
    <v>       0.00000000       0.00000000       9.81490000 </v>
   </varray>
   <i name="volume">    945.49151840 </i>
   <varray name="rec_basis" >
    <v>       0.10188591       0.00000000       0.00000000 </v>
    <v>       0.00000000       0.10188591       0.00000000 </v>
    <v>       0.00000000       0.00000000       0.10188591 </v>
   </varray>
  </crystal>
  <varray name="positions" >
   <v>       0.58007825       0.38460911       0.13049547 </v>
   <v>       0.12678682       0.81065217       0.60808465 </v>
   <v>       0.08636349       0.56304700       0.75225626 </v>
   <v>       0.06976648       0.38309815       0.40746314 </v>
   <v>       0.06954151       0.76404752       0.16706029 </v>
   <v>       0.74868007       0.01863340       0.69936423 </v>
   <v>       0.72029975       0.39280074       0.75736279 </v>
   <v>       0.57451324       0.19109313       0.79056536 </v>
   <v>       0.01370793       0.21352026       0.18370029 </v>
   <v>       0.27985817       0.85774893       0.97801241 </v>
   <v>       0.83990973       0.39263569       0.02211454 </v>
   <v>       0.27231454       0.21278362       0.70574738 </v>
   <v>       0.96295194       0.33092747       0.67114591 </v>
   <v>       0.72686426       0.81642197       0.87132829 </v>
   <v>       0.67680262       0.04388817       0.43445476 </v>
   <v>       0.34579364       0.60987274       0.85027560 </v>
   <v>       0.23183629       0.13718836       0.95067092 </v>
   <v>       0.46618203       0.14060969       0.09200511 </v>
   <v>       0.68321124       0.65365210       0.41884889 </v>
   <v>       0.84399230       0.94896535       0.23728107 </v>
   <v>       0.34175488       0.36316621       0.44007886 </v>
   <v>       0.41295989       0.11879184       0.37907671 </v>
   <v>       0.00387014       0.04610266       0.63075019 </v>
   <v>       0.14530764       0.03631010       0.37328450 </v>
   <v>       0.37380921       0.83351231       0.49986245 </v>
   <v>       0.35358893       0.54351038       0.11275815 </v>
   <v>       0.46558702       0.73509664       0.26201999 </v>
   <v>       0.63735036       0.35655891       0.39870809 </v>
   <v>       0.93459210       0.65359708       0.95178575 </v>
   <v>       0.60185534       0.91056037       0.09829820 </v>
   <v>       0.97184383       0.66475766       0.39946102 </v>
   <v>       0.53392189       0.47011483       0.12172819 </v>
   <v>       0.67847253       0.40687220       0.08189589 </v>
   <v>       0.06793650       0.79717572       0.52857390 </v>
   <v>       0.11333585       0.72500586       0.66863748 </v>
   <v>       0.04911532       0.46629105       0.74899286 </v>
   <v>       0.16984585       0.57384283       0.80112584 </v>
   <v>       0.17233390       0.40691194       0.40749575 </v>
   <v>       0.02922760       0.35278709       0.50127867 </v>
   <v>       0.03964870       0.84964289       0.18904930 </v>
   <v>       0.04867946       0.72110261       0.24917014 </v>
   <v>       0.68359229       0.01474585       0.61904553 </v>
   <v>       0.71982394       0.93860233       0.74848037 </v>
   <v>       0.67690450       0.46130068       0.70385129 </v>
   <v>       0.65027153       0.32434869       0.80607342 </v>
   <v>       0.51381369       0.16745662       0.86700017 </v>
   <v>       0.62553668       0.11494259       0.78477213 </v>
   <v>       0.93805704       0.25654872       0.15035303 </v>
   <v>       0.04599456       0.25845195       0.27862739 </v>
   <v>       0.24892154       0.96659579       0.96885317 </v>
   <v>       0.23119848       0.81359871       0.05802484 </v>
   <v>       0.80436377       0.39975649       0.92926622 </v>
   <v>       0.86107347       0.49410896       0.02345821 </v>
   <v>       0.18111137       0.19562808       0.69138453 </v>
[...]
       <r>   -21.9406    30.5410    35.7491 </r>
       <r>   -21.8250    36.9476    40.0192 </r>
       <r>   -21.7095    29.1004    43.3881 </r>
       <r>   -21.5940    20.3225    45.7398 </r>
       <r>   -21.4785    14.9014    47.4668 </r>
       <r>   -21.3630    16.1559    49.3360 </r>
       <r>   -21.2475     5.0008    49.9191 </r>
       <r>   -21.1320     0.6289    49.9918 </r>
       <r>   -21.0165     0.0036    50.0004 </r>
       <r>   -20.9010     0.0387    50.0049 </r>
       <r>   -20.7855     0.3766    50.0484 </r>
       <r>   -20.6700     3.2280    50.4212 </r>
       <r>   -20.5545    13.3720    51.9658 </r>
       <r>   -20.4390    19.9425    54.2693 </r>
       <r>   -20.3235    12.6030    55.7250 </r>
       <r>   -20.2079     4.9755    56.2997 </r>
       <r>   -20.0924    12.8315    57.7891 </r>
       <r>   -19.9769    14.8205    59.5036 </r>
       <r>   -19.8614     3.8214    59.9450 </r>
       <r>   -19.7459     0.6281    60.0176 </r>
       <r>   -19.6304     1.6403    60.2128 </r>
       <r>   -19.5149     7.6017    61.0909 </r>
       <r>   -19.3994     6.5480    61.8472 </r>
       <r>   -19.2839     1.1818    61.9837 </r>
       <r>   -19.1684     0.1269    61.9984 </r>
       <r>   -19.0529     0.0000    62.0000 </r>
       <r>   -18.9374     0.0000    62.0000 </r>
       <r>   -18.8219     0.0000    62.0000 </r>
       <r>   -18.7064     0.0000    62.0000 </r>
       <r>   -18.5909     0.0000    62.0000 </r>
       <r>   -18.4753     0.0000    62.0000 </r>
       <r>   -18.3598     0.0000    62.0000 </r>
       <r>   -18.2443     0.0000    62.0000 </r>
       <r>   -18.1288     0.0000    62.0000 </r>
       <r>   -18.0133     0.0000    62.0000 </r>
       <r>   -17.8978     0.0000    62.0000 </r>
       <r>   -17.7823     0.0000    62.0000 </r>
       <r>   -17.6668     0.0000    62.0000 </r>
       <r>   -17.5513     0.0000    62.0000 </r>
       <r>   -17.4358     0.0000    62.0000 </r>
       <r>   -17.3203     0.0000    62.0000 </r>
       <r>   -17.2048     0.0000    62.0000 </r>
       <r>   -17.0893     0.0000    62.0000 </r>
       <r>   -16.9738     0.0000    62.0000 </r>
       <r>   -16.8582     0.0000    62.0000 </r>
       <r>   -16.7427     0.0000    62.0000 </r>
       <r>   -16.6272     0.0000    62.0000 </r>
       <r>   -16.5117     0.0000    62.0000 </r>
       <r>   -16.3962     0.0000    62.0000 </r>
       <r>   -16.2807     0.0000    62.0000 </r>
       <r>   -16.1652     0.0000    62.0000 </r>
       <r>   -16.0497     0.0000    62.0000 </r>
       <r>   -15.9342     0.0000    62.0000 </r>
       <r>   -15.8187     0.0000    62.0000 </r>
       <r>   -15.7032     0.0000    62.0000 </r>
       <r>   -15.5877     0.0000    62.0000 </r>
       <r>   -15.4722     0.0000    62.0000 </r>
       <r>   -15.3567     0.0000    62.0000 </r>
       <r>   -15.2412     0.0000    62.0000 </r>
       <r>   -15.1256     0.0000    62.0000 </r>
       <r>   -15.0101     0.0000    62.0000 </r>
       <r>   -14.8946     0.0000    62.0000 </r>
       <r>   -14.7791     0.0000    62.0000 </r>
       <r>   -14.6636     0.0000    62.0000 </r>
       <r>   -14.5481     0.0000    62.0000 </r>
       <r>   -14.4326     0.0000    62.0000 </r>
       <r>   -14.3171     0.0000    62.0000 </r>
       <r>   -14.2016     0.0000    62.0000 </r>
       <r>   -14.0861     0.0000    62.0000 </r>
       <r>   -13.9706     0.0000    62.0000 </r>
       <r>   -13.8551     0.0000    62.0000 </r>
       <r>   -13.7396     0.0000    62.0000 </r>
       <r>   -13.6241     0.0000    62.0000 </r>
       <r>   -13.5085     0.0000    62.0000 </r>
       <r>   -13.3930     0.0000    62.0000 </r>
       <r>   -13.2775     0.0000    62.0000 </r>
       <r>   -13.1620     0.0000    62.0000 </r>
       <r>   -13.0465     0.0000    62.0000 </r>
       <r>   -12.9310     0.0000    62.0000 </r>
       <r>   -12.8155     0.0000    62.0000 </r>
       <r>   -12.7000     0.0000    62.0000 </r>
       <r>   -12.5845     0.0000    62.0000 </r>
       <r>   -12.4690     0.0000    62.0000 </r>
       <r>   -12.3535     0.0000    62.0000 </r>
       <r>   -12.2380     0.0000    62.0000 </r>
       <r>   -12.1225     0.0000    62.0000 </r>
       <r>   -12.0070     0.0043    62.0005 </r>
       <r>   -11.8915     0.0392    62.0050 </r>
       <r>   -11.7759     0.3865    62.0497 </r>
       <r>   -11.6604     3.1130    62.4092 </r>
       <r>   -11.5449     9.0891    63.4591 </r>
       <r>   -11.4294     5.5502    64.1002 </r>
       <r>   -11.3139     9.6469    65.2145 </r>
       <r>   -11.1984    17.8142    67.2721 </r>
       <r>   -11.0829    10.7138    68.5104 </r>
       <r>   -10.9674    12.5849    69.9641 </r>
       <r>   -10.8519    12.2566    71.3858 </r>
       <r>   -10.7364     7.6914    72.2746 </r>
       <r>   -10.6209    14.5463    73.9598 </r>
       <r>   -10.5054    26.3449    77.0028 </r>
       <r>   -10.3899    27.9196    80.2286 </r>
       <r>   -10.2744    32.6073    83.9949 </r>
       <r>   -10.1588    30.6021    87.5368 </r>
       <r>   -10.0433    23.7645    90.2834 </r>
       <r>    -9.9278    22.1171    92.8433 </r>
       <r>    -9.8123    22.7540    95.4800 </r>
       <r>    -9.6968    37.2694    99.7851 </r>
       <r>    -9.5813    27.8283   103.0029 </r>
       <r>    -9.4658     7.6281   103.8863 </r>
       <r>    -9.3503     1.6052   104.0766 </r>
       <r>    -9.2348     5.6811   104.7367 </r>
       <r>    -9.1193    21.8333   107.2594 </r>
       <r>    -9.0038    35.6480   111.3770 </r>
       <r>    -8.8883    21.7329   113.8873 </r>
       <r>    -8.7728    13.2621   115.4250 </r>
       <r>    -8.6573    13.6616   117.0086 </r>
       <r>    -8.5418     7.7887   117.9120 </r>
       <r>    -8.4262     5.6982   118.5702 </r>
       <r>    -8.3107    16.6855   120.4987 </r>
       <r>    -8.1952    18.0018   122.5796 </r>
       <r>    -8.0797    13.2460   124.1096 </r>
       <r>    -7.9642    13.1286   125.6280 </r>
       <r>    -7.8487    15.4125   127.4113 </r>
       <r>    -7.7332    19.5598   129.6734 </r>
       <r>    -7.6177    15.0328   131.4112 </r>
       <r>    -7.5022    20.1309   133.7371 </r>
       <r>    -7.3867    28.1266   136.9929 </r>
       <r>    -7.2712    30.0673   140.4661 </r>
       <r>    -7.1557    26.7606   143.5592 </r>
       <r>    -7.0402    25.9831   146.5642 </r>
       <r>    -6.9247    25.4826   149.5125 </r>
       <r>    -6.8091    22.7020   152.1390 </r>
       <r>    -6.6936    19.7471   154.4241 </r>
       <r>    -6.5781    15.4401   156.2106 </r>
       <r>    -6.4626    17.9767   158.2920 </r>
       <r>    -6.3471    16.9376   160.2521 </r>
       <r>    -6.2316    16.7112   162.1853 </r>
       <r>    -6.1161    17.9386   164.2579 </r>
       <r>    -6.0006    18.9220   166.4470 </r>
       <r>    -5.8851    18.9468   168.6371 </r>
       <r>    -5.7696    22.2505   171.2115 </r>
       <r>    -5.6541    25.5088   174.1600 </r>
       <r>    -5.5386    19.0211   176.3597 </r>
       <r>    -5.4231    22.0003   178.9043 </r>
       <r>    -5.3076    27.8139   182.1220 </r>
       <r>    -5.1921    26.8342   185.2248 </r>
       <r>    -5.0765    20.3970   187.5833 </r>
       <r>    -4.9610    20.1160   189.9106 </r>
       <r>    -4.8455    27.4532   193.0868 </r>
       <r>    -4.7300    29.1226   196.4517 </r>
       <r>    -4.6145    30.8514   200.0170 </r>
       <r>    -4.4990    49.8138   205.7716 </r>
       <r>    -4.3835    61.1292   212.8388 </r>
       <r>    -4.2680    54.6179   219.1513 </r>
       <r>    -4.1525    37.8448   223.5295 </r>
       <r>    -4.0370    31.9382   227.2272 </r>
       <r>    -3.9215    37.2352   231.5398 </r>
       <r>    -3.8060    29.2410   234.9223 </r>
       <r>    -3.6905    13.7500   236.5174 </r>
       <r>    -3.5750    11.3863   237.8401 </r>
       <r>    -3.4595    11.7768   239.2068 </r>
       <r>    -3.3439    16.1738   241.0758 </r>
       <r>    -3.2284    11.6152   242.4216 </r>
       <r>    -3.1129    15.4685   244.2083 </r>
       <r>    -2.9974    12.4264   245.6457 </r>
       <r>    -2.8819     3.5619   246.0584 </r>
       <r>    -2.7664     5.4034   246.6860 </r>
       <r>    -2.6509     8.5966   247.6828 </r>
       <r>    -2.5354     2.4285   247.9633 </r>
       <r>    -2.4199     0.2859   247.9963 </r>
       <r>    -2.3044     0.0000   248.0000 </r>
       <r>    -2.1889     0.0000   248.0000 </r>
       <r>    -2.0734     0.0000   248.0000 </r>
       <r>    -1.9579     0.0000   248.0000 </r>
       <r>    -1.8424     0.0000   248.0000 </r>
       <r>    -1.7268     0.0000   248.0000 </r>
       <r>    -1.6113     0.0000   248.0000 </r>
       <r>    -1.4958     0.0000   248.0000 </r>
       <r>    -1.3803     0.0000   248.0000 </r>
       <r>    -1.2648     0.0000   248.0000 </r>
       <r>    -1.1493     0.0000   248.0000 </r>
       <r>    -1.0338     0.0000   248.0000 </r>
       <r>    -0.9183     0.0000   248.0000 </r>
       <r>    -0.8028     0.0000   248.0000 </r>
       <r>    -0.6873     0.0000   248.0000 </r>
       <r>    -0.5718     0.0000   248.0000 </r>
       <r>    -0.4563     0.0000   248.0000 </r>
       <r>    -0.3408     0.0000   248.0000 </r>
       <r>    -0.2253     0.0000   248.0000 </r>
       <r>    -0.1098     0.0000   248.0000 </r>
       <r>     0.0058     0.0000   248.0000 </r>
       <r>     0.1213     0.0000   248.0000 </r>
       <r>     0.2368     0.0005   248.0001 </r>
       <r>     0.3523     0.0057   248.0007 </r>
       <r>     0.4678     0.0560   248.0072 </r>
       <r>     0.5833     0.4178   248.0554 </r>
       <r>     0.6988     1.6082   248.2412 </r>
       <r>     0.8143     3.7254   248.6715 </r>
       <r>     0.9298     5.9384   249.3574 </r>
       <r>     1.0453     4.3464   249.8596 </r>
       <r>     1.1608     1.1145   249.9887 </r>
       <r>     1.2763     0.5124   250.0488 </r>
       <r>     1.3918     2.4547   250.3334 </r>
       <r>     1.5073     6.3112   251.0625 </r>
       <r>     1.6229     5.2247   251.6660 </r>
       <r>     1.7384     2.1979   251.9199 </r>
       <r>     1.8539     0.7970   252.0129 </r>
       <r>     1.9694     1.6031   252.1991 </r>
       <r>     2.0849     5.4886   252.8334 </r>
       <r>     2.2004     7.5712   253.7080 </r>
       <r>     2.3159     6.5063   254.4595 </r>
       <r>     2.4314     5.9334   255.1455 </r>
       <r>     2.5469     5.3107   255.7605 </r>
       <r>     2.6624     5.8752   256.4400 </r>
       <r>     2.7779     7.2116   257.2741 </r>
       <r>     2.8934     7.4742   258.1381 </r>
       <r>     3.0089     7.4519   258.9996 </r>
       <r>     3.1244     8.3949   259.9702 </r>
       <r>     3.2399     9.4537   261.0634 </r>
       <r>     3.3555    10.6284   262.2920 </r>
       <r>     3.4710    10.4226   263.4971 </r>
       <r>     3.5865    10.5609   264.7182 </r>
       <r>     3.7020    11.3637   266.0327 </r>
       <r>     3.8175    11.5831   267.3722 </r>
       <r>     3.9330    12.0767   268.7683 </r>
       <r>     4.0485    11.8543   270.1397 </r>
       <r>     4.1640    12.4085   271.5747 </r>
       <r>     4.2795    12.5927   273.0310 </r>
       <r>     4.3950    12.5006   274.4766 </r>
       <r>     4.5105    13.5485   276.0434 </r>
       <r>     4.6260    14.4817   277.7181 </r>
       <r>     4.7415    15.5840   279.5198 </r>
       <r>     4.8570    16.8503   281.4682 </r>
       <r>     4.9726    17.6474   283.5088 </r>
       <r>     5.0881    17.4026   285.5215 </r>
       <r>     5.2036    18.3927   287.6485 </r>
       <r>     5.3191    19.5950   289.9145 </r>
       <r>     5.4346    19.1665   292.1308 </r>
       <r>     5.5501    18.9733   294.3248 </r>
       <r>     5.6656    20.2580   296.6677 </r>
       <r>     5.7811    22.2364   299.2390 </r>
       <r>     5.8966    22.7937   301.8747 </r>
       <r>     6.0121    23.8029   304.6270 </r>
       <r>     6.1276    25.9339   307.6261 </r>
       <r>     6.2431    27.1995   310.7713 </r>
       <r>     6.3586    26.4259   313.8271 </r>
       <r>     6.4741    25.5082   316.7773 </r>
       <r>     6.5896    25.9970   319.7845 </r>
       <r>     6.7052    25.3284   322.7143 </r>
       <r>     6.8207    24.6701   325.5673 </r>
       <r>     6.9362    23.7985   328.3202 </r>
       <r>     7.0517    23.2034   331.0040 </r>
       <r>     7.1672    21.9939   333.5483 </r>
       <r>     7.2827    20.6836   335.9407 </r>
       <r>     7.3982    18.7725   338.1127 </r>
       <r>     7.5137    16.6219   340.0361 </r>
       <r>     7.6292    14.0267   341.6596 </r>
       <r>     7.7447    10.6727   342.8954 </r>
       <r>     7.8602     6.4040   343.6377 </r>
       <r>     7.9757     2.3907   343.9164 </r>
       <r>     8.0912     0.6034   343.9879 </r>
       <r>     8.2067     0.0839   343.9988 </r>
       <r>     8.3223     0.0066   343.9999 </r>
       <r>     8.4378     0.0000   344.0000 </r>
       <r>     8.5533     0.0000   344.0000 </r>
       <r>     8.6688     0.0000   344.0000 </r>
       <r>     8.7843     0.0000   344.0000 </r>
       <r>     8.8998     0.0000   344.0000 </r>
       <r>     9.0153     0.0000   344.0000 </r>
       <r>     9.1308     0.0000   344.0000 </r>
       <r>     9.2463     0.0000   344.0000 </r>
       <r>     9.3618     0.0000   344.0000 </r>
       <r>     9.4773     0.0000   344.0000 </r>
       <r>     9.5928     0.0000   344.0000 </r>
      </set>
     </set>
    </array>
   </total>
  </dos>
 </calculation>
 <structure name="finalpos" >
  <crystal>
   <varray name="basis" >
    <v>       9.81490000       0.00000000       0.00000000 </v>
    <v>       0.00000000       9.81490000       0.00000000 </v>
    <v>       0.00000000       0.00000000       9.81490000 </v>
   </varray>
   <i name="volume">    945.49151840 </i>
   <varray name="rec_basis" >
    <v>       0.10188591       0.00000000       0.00000000 </v>
    <v>       0.00000000       0.10188591       0.00000000 </v>
    <v>       0.00000000       0.00000000       0.10188591 </v>
   </varray>
  </crystal>
  <varray name="positions" >
   <v>       0.58007825       0.38460911       0.13049547 </v>
   <v>       0.12678682       0.81065217       0.60808465 </v>
   <v>       0.08636349       0.56304700       0.75225626 </v>
   <v>       0.06976648       0.38309815       0.40746314 </v>
   <v>       0.06954151       0.76404752       0.16706029 </v>
   <v>       0.74868007       0.01863340       0.69936423 </v>
   <v>       0.72029975       0.39280074       0.75736279 </v>
   <v>       0.57451324       0.19109313       0.79056536 </v>
   <v>       0.01370793       0.21352026       0.18370029 </v>
   <v>       0.27985817       0.85774893       0.97801241 </v>
   <v>       0.83990973       0.39263569       0.02211454 </v>
   <v>       0.27231454       0.21278362       0.70574738 </v>
   <v>       0.96295194       0.33092747       0.67114591 </v>
   <v>       0.72686426       0.81642197       0.87132829 </v>
   <v>       0.67680262       0.04388817       0.43445476 </v>
   <v>       0.34579364       0.60987274       0.85027560 </v>
   <v>       0.23183629       0.13718836       0.95067092 </v>
   <v>       0.46618203       0.14060969       0.09200511 </v>
   <v>       0.68321124       0.65365210       0.41884889 </v>
   <v>       0.84399230       0.94896535       0.23728107 </v>
   <v>       0.34175488       0.36316621       0.44007886 </v>
   <v>       0.41295989       0.11879184       0.37907671 </v>
   <v>       0.00387014       0.04610266       0.63075019 </v>
   <v>       0.14530764       0.03631010       0.37328450 </v>
   <v>       0.37380921       0.83351231       0.49986245 </v>
   <v>       0.35358893       0.54351038       0.11275815 </v>
   <v>       0.46558702       0.73509664       0.26201999 </v>
   <v>       0.63735036       0.35655891       0.39870809 </v>
   <v>       0.93459210       0.65359708       0.95178575 </v>
   <v>       0.60185534       0.91056037       0.09829820 </v>
   <v>       0.97184383       0.66475766       0.39946102 </v>
   <v>       0.53392189       0.47011483       0.12172819 </v>
   <v>       0.67847253       0.40687220       0.08189589 </v>
   <v>       0.06793650       0.79717572       0.52857390 </v>
   <v>       0.11333585       0.72500586       0.66863748 </v>
   <v>       0.04911532       0.46629105       0.74899286 </v>
   <v>       0.16984585       0.57384283       0.80112584 </v>
   <v>       0.17233390       0.40691194       0.40749575 </v>
   <v>       0.02922760       0.35278709       0.50127867 </v>
   <v>       0.03964870       0.84964289       0.18904930 </v>
   <v>       0.04867946       0.72110261       0.24917014 </v>
   <v>       0.68359229       0.01474585       0.61904553 </v>
   <v>       0.71982394       0.93860233       0.74848037 </v>
   <v>       0.67690450       0.46130068       0.70385129 </v>
   <v>       0.65027153       0.32434869       0.80607342 </v>
   <v>       0.51381369       0.16745662       0.86700017 </v>
   <v>       0.62553668       0.11494259       0.78477213 </v>
   <v>       0.93805704       0.25654872       0.15035303 </v>
   <v>       0.04599456       0.25845195       0.27862739 </v>
   <v>       0.24892154       0.96659579       0.96885317 </v>
   <v>       0.23119848       0.81359871       0.05802484 </v>
   <v>       0.80436377       0.39975649       0.92926622 </v>
   <v>       0.86107347       0.49410896       0.02345821 </v>
   <v>       0.18111137       0.19562808       0.69138453 </v>
   <v>       0.29520932       0.27447045       0.63237629 </v>
   <v>       0.98620404       0.23785877       0.65628585 </v>
   <v>       0.86185086       0.31013969       0.68837278 </v>
   <v>       0.68515624       0.84520780       0.95886866 </v>
   <v>       0.79334481       0.74519353       0.91598804 </v>
   <v>       0.69119400       0.14180583       0.41404192 </v>
   <v>       0.56448155       0.05005176       0.41576379 </v>
   <v>       0.35774078       0.57015354       0.95608412 </v>
   <v>       0.30391751       0.70257160       0.88833304 </v>
   <v>       0.23555003       0.19278036       0.85661494 </v>
   <v>       0.16600984       0.16403631       0.01131341 </v>
   <v>       0.37455603       0.13440178       0.05815057 </v>
   <v>       0.47637164       0.23650470       0.11586058 </v>
   <v>       0.63744511       0.62958665       0.52436092 </v>
   <v>       0.60542848       0.67333850       0.36715300 </v>
   <v>       0.90384558       0.03254949       0.18473647 </v>
   <v>       0.75727720       0.98221531       0.30407646 </v>
   <v>       0.40941222       0.42243018       0.46817899 </v>
   <v>       0.39042374       0.26745968       0.42104759 </v>
   <v>       0.30998482       0.09806376       0.36380401 </v>
   <v>       0.42935435       0.10503316       0.27520403 </v>
   <v>       0.90348083       0.02188733       0.64285525 </v>
   <v>       0.06159788       0.96544570       0.63020306 </v>
   <v>       0.06778592       0.03557499       0.29138860 </v>
   <v>       0.07479383       0.04896025       0.46723044 </v>
   <v>       0.29247878       0.79828118       0.55735565 </v>
   <v>       0.44472791       0.81523908       0.57338944 </v>
   <v>       0.39424039       0.61848720       0.15811776 </v>
   <v>       0.29154856       0.47299922       0.16756972 </v>
   <v>       0.43123822       0.75506220       0.34911512 </v>
   <v>       0.48721943       0.80684673       0.19920937 </v>
   <v>       0.61774445       0.37702473       0.29917167 </v>
   <v>       0.66952185       0.44447727       0.39682422 </v>
   <v>       0.00709829       0.61884584       0.85887783 </v>
   <v>       0.99045115       0.70820487       0.02754435 </v>
   <v>       0.55744531       0.00997320       0.08945674 </v>
   <v>       0.68976658       0.91840355       0.12517601 </v>
   <v>       0.87000071       0.65332199       0.40840151 </v>
   <v>       0.00517479       0.57181530       0.40702198 </v>
  </varray>
 </structure>
</modeling>
