  93  93   0   0
  0.1016658E+02  0.9814900E-09  0.9814900E-09  0.9814900E-09  0.5000000E-15
  1.000000000000000E-004
  CAR 
 ice                                     
      9.64392450    -25.13929044  301     -2.06631130      1.00000000
    -25.139  0.0000E+00  0.0000E+00
    -25.023  0.0000E+00  0.0000E+00
    -24.907  0.0000E+00  0.0000E+00
    -24.791  0.0000E+00  0.0000E+00
    -24.676  0.0000E+00  0.0000E+00
    -24.560  0.0000E+00  0.0000E+00
    -24.444  0.0000E+00  0.0000E+00
    -24.328  0.0000E+00  0.0000E+00
    -24.212  0.0000E+00  0.0000E+00
    -24.096  0.0000E+00  0.0000E+00
    -23.980  0.3552E-02  0.4118E-03
    -23.864  0.3248E-01  0.4178E-02
    -23.748  0.3312E+00  0.4258E-01
    -23.632  0.2780E+01  0.3649E+00
    -23.516  0.9507E+01  0.1467E+01
    -23.400  0.1065E+02  0.2702E+01
    -23.284  0.2203E+02  0.5257E+01
    -23.168  0.1866E+02  0.7421E+01
    -23.052  0.4729E+01  0.7970E+01
    -22.936  0.2982E+01  0.8322E+01
    -22.820  0.1129E+02  0.9637E+01
    -22.704  0.2050E+02  0.1201E+02
    -22.589  0.2895E+02  0.1537E+02
    -22.473  0.3228E+02  0.1911E+02
    -22.357  0.2368E+02  0.2186E+02
    -22.241  0.1738E+02  0.2388E+02
    -22.125  0.2727E+02  0.2705E+02
    -22.009  0.4530E+02  0.3231E+02
    -21.893  0.3070E+02  0.3587E+02
    -21.777  0.1583E+02  0.3770E+02
    -21.661  0.1468E+02  0.3941E+02
    -21.545  0.2904E+02  0.4279E+02
    -21.429  0.2724E+02  0.4595E+02
    -21.313  0.1633E+02  0.4785E+02
    -21.197  0.1496E+02  0.4959E+02
    -21.081  0.1841E+02  0.5173E+02
    -20.965  0.1268E+02  0.5320E+02
    -20.849  0.8701E+01  0.5421E+02
    -20.733  0.9656E+01  0.5534E+02
    -20.617  0.5549E+01  0.5598E+02
    -20.502  0.5239E+01  0.5659E+02
    -20.386  0.1383E+02  0.5819E+02
    -20.270  0.1286E+02  0.5969E+02
    -20.154  0.8046E+01  0.6062E+02
    -20.038  0.8986E+01  0.6167E+02
    -19.922  0.2513E+01  0.6196E+02
    -19.806  0.2955E+00  0.6200E+02
    -19.690  0.0000E+00  0.6200E+02
    -19.574  0.0000E+00  0.6200E+02
    -19.458  0.0000E+00  0.6200E+02
    -19.342  0.0000E+00  0.6200E+02
    -19.226  0.0000E+00  0.6200E+02
    -19.110  0.0000E+00  0.6200E+02
    -18.994  0.0000E+00  0.6200E+02
    -18.878  0.0000E+00  0.6200E+02
    -18.762  0.0000E+00  0.6200E+02
    -18.646  0.0000E+00  0.6200E+02
    -18.530  0.0000E+00  0.6200E+02
    -18.415  0.0000E+00  0.6200E+02
    -18.299  0.0000E+00  0.6200E+02
    -18.183  0.0000E+00  0.6200E+02
    -18.067  0.0000E+00  0.6200E+02
    -17.951  0.0000E+00  0.6200E+02
    -17.835  0.0000E+00  0.6200E+02
    -17.719  0.0000E+00  0.6200E+02
    -17.603  0.0000E+00  0.6200E+02
    -17.487  0.0000E+00  0.6200E+02
    -17.371  0.0000E+00  0.6200E+02
    -17.255  0.0000E+00  0.6200E+02
    -17.139  0.0000E+00  0.6200E+02
    -17.023  0.0000E+00  0.6200E+02
    -16.907  0.0000E+00  0.6200E+02
    -16.791  0.0000E+00  0.6200E+02
    -16.675  0.0000E+00  0.6200E+02
    -16.559  0.0000E+00  0.6200E+02
    -16.443  0.0000E+00  0.6200E+02
    -16.328  0.0000E+00  0.6200E+02
    -16.212  0.0000E+00  0.6200E+02
    -16.096  0.0000E+00  0.6200E+02
    -15.980  0.0000E+00  0.6200E+02
    -15.864  0.0000E+00  0.6200E+02
    -15.748  0.0000E+00  0.6200E+02
    -15.632  0.0000E+00  0.6200E+02
    -15.516  0.0000E+00  0.6200E+02
    -15.400  0.0000E+00  0.6200E+02
    -15.284  0.0000E+00  0.6200E+02
    -15.168  0.0000E+00  0.6200E+02
    -15.052  0.0000E+00  0.6200E+02
    -14.936  0.0000E+00  0.6200E+02
    -14.820  0.0000E+00  0.6200E+02
    -14.704  0.0000E+00  0.6200E+02
    -14.588  0.0000E+00  0.6200E+02
    -14.472  0.0000E+00  0.6200E+02
    -14.356  0.0000E+00  0.6200E+02
    -14.241  0.0000E+00  0.6200E+02
    -14.125  0.0000E+00  0.6200E+02
    -14.009  0.0000E+00  0.6200E+02
    -13.893  0.0000E+00  0.6200E+02
    -13.777  0.0000E+00  0.6200E+02
    -13.661  0.0000E+00  0.6200E+02
    -13.545  0.0000E+00  0.6200E+02
    -13.429  0.0000E+00  0.6200E+02
    -13.313  0.0000E+00  0.6200E+02
    -13.197  0.0000E+00  0.6200E+02
    -13.081  0.0000E+00  0.6200E+02
    -12.965  0.0000E+00  0.6200E+02
    -12.849  0.0000E+00  0.6200E+02
    -12.733  0.0000E+00  0.6200E+02
    -12.617  0.0000E+00  0.6200E+02
    -12.501  0.0000E+00  0.6200E+02
    -12.385  0.0000E+00  0.6200E+02
    -12.270  0.0000E+00  0.6200E+02
    -12.154  0.0000E+00  0.6200E+02
    -12.038  0.7940E-03  0.6200E+02
    -11.922  0.7273E-02  0.6200E+02
    -11.806  0.7469E-01  0.6201E+02
    -11.690  0.7243E+00  0.6209E+02
    -11.574  0.4996E+01  0.6267E+02
    -11.458  0.9722E+01  0.6380E+02
    -11.342  0.9041E+01  0.6485E+02
    -11.226  0.1260E+02  0.6631E+02
    -11.110  0.1117E+02  0.6761E+02
    -10.994  0.6012E+01  0.6830E+02
    -10.878  0.9437E+01  0.6940E+02
    -10.762  0.7386E+01  0.7026E+02
    -10.646  0.1626E+02  0.7215E+02
    -10.530  0.2883E+02  0.7549E+02
    -10.414  0.2104E+02  0.7793E+02
    -10.298  0.1707E+02  0.7991E+02
    -10.183  0.2964E+02  0.8335E+02
    -10.067  0.3843E+02  0.8781E+02
     -9.951  0.2845E+02  0.9111E+02
     -9.835  0.1667E+02  0.9304E+02
     -9.719  0.1621E+02  0.9493E+02
     -9.603  0.2509E+02  0.9784E+02
     -9.487  0.3015E+02  0.1013E+03
     -9.371  0.2534E+02  0.1043E+03
     -9.255  0.2054E+02  0.1067E+03
     -9.139  0.2218E+02  0.1092E+03
     -9.023  0.2637E+02  0.1123E+03
     -8.907  0.2204E+02  0.1149E+03
     -8.791  0.9286E+01  0.1159E+03
     -8.675  0.7479E+01  0.1168E+03
     -8.559  0.2150E+02  0.1193E+03
     -8.443  0.1868E+02  0.1215E+03
     -8.327  0.6890E+01  0.1223E+03
     -8.211  0.1116E+02  0.1236E+03
     -8.096  0.1910E+02  0.1258E+03
     -7.980  0.2558E+02  0.1288E+03
     -7.864  0.1097E+02  0.1300E+03
     -7.748  0.8805E+01  0.1311E+03
     -7.632  0.9525E+01  0.1322E+03
     -7.516  0.1380E+02  0.1338E+03
     -7.400  0.2349E+02  0.1365E+03
     -7.284  0.2620E+02  0.1395E+03
     -7.168  0.2125E+02  0.1420E+03
     -7.052  0.2287E+02  0.1447E+03
     -6.936  0.2661E+02  0.1477E+03
     -6.820  0.2412E+02  0.1505E+03
     -6.704  0.2270E+02  0.1532E+03
     -6.588  0.2195E+02  0.1557E+03
     -6.472  0.1572E+02  0.1576E+03
     -6.356  0.1346E+02  0.1591E+03
     -6.240  0.1825E+02  0.1612E+03
     -6.124  0.1929E+02  0.1635E+03
     -6.009  0.2046E+02  0.1658E+03
     -5.893  0.1903E+02  0.1681E+03
     -5.777  0.2194E+02  0.1706E+03
     -5.661  0.2298E+02  0.1733E+03
     -5.545  0.2007E+02  0.1756E+03
     -5.429  0.2993E+02  0.1791E+03
     -5.313  0.3061E+02  0.1826E+03
     -5.197  0.2548E+02  0.1856E+03
     -5.081  0.2060E+02  0.1880E+03
     -4.965  0.1962E+02  0.1903E+03
     -4.849  0.2212E+02  0.1928E+03
     -4.733  0.3015E+02  0.1963E+03
     -4.617  0.4838E+02  0.2019E+03
     -4.501  0.4817E+02  0.2075E+03
     -4.385  0.3788E+02  0.2119E+03
     -4.269  0.3350E+02  0.2158E+03
     -4.153  0.4324E+02  0.2208E+03
     -4.037  0.4204E+02  0.2257E+03
     -3.922  0.2176E+02  0.2282E+03
     -3.806  0.2449E+02  0.2311E+03
     -3.690  0.3063E+02  0.2346E+03
     -3.574  0.2774E+02  0.2379E+03
     -3.458  0.3374E+02  0.2418E+03
     -3.342  0.3320E+02  0.2456E+03
     -3.226  0.1707E+02  0.2476E+03
     -3.110  0.2933E+01  0.2480E+03
     -2.994  0.2813E+00  0.2480E+03
     -2.878  0.0000E+00  0.2480E+03
     -2.762  0.0000E+00  0.2480E+03
     -2.646  0.0000E+00  0.2480E+03
     -2.530  0.0000E+00  0.2480E+03
     -2.414  0.0000E+00  0.2480E+03
     -2.298  0.0000E+00  0.2480E+03
     -2.182  0.0000E+00  0.2480E+03
     -2.066  0.0000E+00  0.2480E+03
     -1.950  0.0000E+00  0.2480E+03
     -1.835  0.0000E+00  0.2480E+03
     -1.719  0.0000E+00  0.2480E+03
     -1.603  0.0000E+00  0.2480E+03
     -1.487  0.0000E+00  0.2480E+03
     -1.371  0.0000E+00  0.2480E+03
     -1.255  0.0000E+00  0.2480E+03
     -1.139  0.0000E+00  0.2480E+03
     -1.023  0.0000E+00  0.2480E+03
     -0.907  0.0000E+00  0.2480E+03
     -0.791  0.0000E+00  0.2480E+03
     -0.675  0.0000E+00  0.2480E+03
     -0.559  0.0000E+00  0.2480E+03
     -0.443  0.0000E+00  0.2480E+03
     -0.327  0.0000E+00  0.2480E+03
     -0.211  0.0000E+00  0.2480E+03
     -0.095  0.0000E+00  0.2480E+03
      0.021  0.0000E+00  0.2480E+03
      0.137  0.0000E+00  0.2480E+03
      0.252  0.6843E-04  0.2480E+03
      0.368  0.8850E-03  0.2480E+03
      0.484  0.8912E-02  0.2480E+03
      0.600  0.8272E-01  0.2480E+03
      0.716  0.4887E+00  0.2481E+03
      0.832  0.1313E+01  0.2482E+03
      0.948  0.2239E+01  0.2485E+03
      1.064  0.3267E+01  0.2489E+03
      1.180  0.3863E+01  0.2493E+03
      1.296  0.3558E+01  0.2497E+03
      1.412  0.2839E+01  0.2500E+03
      1.528  0.3274E+01  0.2504E+03
      1.644  0.5383E+01  0.2511E+03
      1.760  0.5336E+01  0.2517E+03
      1.876  0.2694E+01  0.2520E+03
      1.992  0.2748E+01  0.2523E+03
      2.108  0.5831E+01  0.2530E+03
      2.224  0.6698E+01  0.2538E+03
      2.339  0.6455E+01  0.2545E+03
      2.455  0.6988E+01  0.2553E+03
      2.571  0.6917E+01  0.2561E+03
      2.687  0.6782E+01  0.2569E+03
      2.803  0.6867E+01  0.2577E+03
      2.919  0.6833E+01  0.2585E+03
      3.035  0.7309E+01  0.2593E+03
      3.151  0.8056E+01  0.2603E+03
      3.267  0.8396E+01  0.2613E+03
      3.383  0.9010E+01  0.2623E+03
      3.499  0.9853E+01  0.2634E+03
      3.615  0.1011E+02  0.2646E+03
      3.731  0.1166E+02  0.2660E+03
      3.847  0.1350E+02  0.2675E+03
      3.963  0.1411E+02  0.2692E+03
      4.079  0.1395E+02  0.2708E+03
      4.195  0.1395E+02  0.2724E+03
      4.310  0.1413E+02  0.2741E+03
      4.426  0.1469E+02  0.2758E+03
      4.542  0.1438E+02  0.2774E+03
      4.658  0.1427E+02  0.2791E+03
      4.774  0.1504E+02  0.2808E+03
      4.890  0.1500E+02  0.2826E+03
      5.006  0.1611E+02  0.2844E+03
      5.122  0.1800E+02  0.2865E+03
      5.238  0.1898E+02  0.2887E+03
      5.354  0.1944E+02  0.2910E+03
      5.470  0.2074E+02  0.2934E+03
      5.586  0.2181E+02  0.2959E+03
      5.702  0.2151E+02  0.2984E+03
      5.818  0.2150E+02  0.3009E+03
      5.934  0.2309E+02  0.3036E+03
      6.050  0.2440E+02  0.3064E+03
      6.166  0.2503E+02  0.3093E+03
      6.282  0.2553E+02  0.3123E+03
      6.397  0.2663E+02  0.3154E+03
      6.513  0.2638E+02  0.3185E+03
      6.629  0.2630E+02  0.3215E+03
      6.745  0.2762E+02  0.3247E+03
      6.861  0.2680E+02  0.3278E+03
      6.977  0.2338E+02  0.3305E+03
      7.093  0.2140E+02  0.3330E+03
      7.209  0.1971E+02  0.3353E+03
      7.325  0.1797E+02  0.3374E+03
      7.441  0.1660E+02  0.3393E+03
      7.557  0.1504E+02  0.3411E+03
      7.673  0.1189E+02  0.3425E+03
      7.789  0.8145E+01  0.3434E+03
      7.905  0.3789E+01  0.3439E+03
      8.021  0.1009E+01  0.3440E+03
      8.137  0.1767E+00  0.3440E+03
      8.253  0.1994E-01  0.3440E+03
      8.369  0.1229E-02  0.3440E+03
      8.484  0.0000E+00  0.3440E+03
      8.600  0.0000E+00  0.3440E+03
      8.716  0.0000E+00  0.3440E+03
      8.832  0.0000E+00  0.3440E+03
      8.948  0.0000E+00  0.3440E+03
      9.064  0.0000E+00  0.3440E+03
      9.180  0.0000E+00  0.3440E+03
      9.296  0.0000E+00  0.3440E+03
      9.412  0.0000E+00  0.3440E+03
      9.528  0.0000E+00  0.3440E+03
      9.644  0.0000E+00  0.3440E+03
