       N       E                     dE             d eps       ncg     rms          rms(c)
RMM:   1     0.332436739821E+04    0.33244E+04   -0.74388E+04 86688   0.878E+02
RMM:   2     0.105254241743E+04   -0.22718E+04   -0.24384E+04 86688   0.253E+02
RMM:   3     0.862694651623E+02   -0.96627E+03   -0.10271E+04 86688   0.187E+02
RMM:   4    -0.344949544735E+03   -0.43122E+03   -0.36681E+03 86688   0.130E+02
RMM:   5    -0.452089289076E+03   -0.10714E+03   -0.97565E+02 86688   0.684E+01
RMM:   6    -0.479610036310E+03   -0.27521E+02   -0.25100E+02 86688   0.353E+01
RMM:   7    -0.486896245462E+03   -0.72862E+01   -0.69748E+01 86688   0.179E+01
RMM:   8    -0.489077098227E+03   -0.21809E+01   -0.20539E+01 86688   0.957E+00
RMM:   9    -0.489931039729E+03   -0.85394E+00   -0.83831E+00221711   0.507E+00
RMM:  10    -0.490048442704E+03   -0.11740E+00   -0.11056E+00235128   0.147E+00
RMM:  11    -0.490050652821E+03   -0.22101E-02   -0.37612E-02221805   0.313E-01
RMM:  12    -0.490051270402E+03   -0.61758E-03   -0.60559E-03222940   0.809E-02    0.398E+01
RMM:  13    -0.448356682936E+03    0.41695E+02   -0.14735E+02209580   0.244E+01    0.153E+01
RMM:  14    -0.447140256406E+03    0.12164E+01   -0.54685E+00217720   0.417E+00    0.965E+00
RMM:  15    -0.446645527701E+03    0.49473E+00   -0.16303E+00214298   0.358E+00    0.134E+00
RMM:  16    -0.446599672421E+03    0.45855E-01   -0.28190E-01221754   0.952E-01    0.514E-01
RMM:  17    -0.446608071318E+03   -0.83989E-02   -0.52377E-02207798   0.437E-01    0.356E-01
RMM:  18    -0.446604289958E+03    0.37814E-02   -0.10301E-02217770   0.225E-01    0.927E-02
RMM:  19    -0.446603196702E+03    0.10933E-02   -0.23814E-03217667   0.859E-02    0.397E-02
RMM:  20    -0.446602992076E+03    0.20463E-03   -0.58636E-04219323   0.390E-02    0.214E-02
RMM:  21    -0.446602965577E+03    0.26498E-04   -0.13417E-04220268   0.199E-02    0.131E-02
RMM:  22    -0.446602957868E+03    0.77096E-05   -0.32588E-05217813   0.107E-02    0.359E-03
RMM:  23    -0.446602957352E+03    0.51549E-06   -0.43434E-06182528   0.409E-03
   1 F= -.44967894E+03 E0= -.44967894E+03  d E =-.477256E-10
