    #         X           Y           Z       CHARGE      MIN DIST   ATOMIC VOL
 --------------------------------------------------------------------------------
    1    0.000000    0.000000    0.000000   10.999192     1.266394    72.950266
    2    2.936476    1.698031    2.335740   10.963313     1.254890    17.322270
    3    0.005923    3.392243    4.640434   10.981396     1.256261    17.422589
    4    7.348431   12.728339    7.026211   11.036455     1.297360    24.945596
    5   13.227930    2.545716    0.000000   11.058181     1.283384    83.621324
    6    1.474459    4.245185    2.332443   10.973263     1.265190    17.352455
    7    1.461789    0.847087    4.645649   10.954360     1.256357    17.300964
    8   -1.465544    2.547078    6.975928   11.105330     1.271133    22.517531
    9    1.469770    2.545716    0.000000   11.039022     1.265736   123.913003
   10   -1.468080    4.243683    2.337462   10.988957     1.251598    17.456324
   11    4.405445    0.852433    4.638417   10.992948     1.265375    17.484733
   12    1.466294    2.533535    7.011451   11.090260     1.286938    24.039178
   13    2.939540    0.000000    0.000000   11.058390     1.277207    93.560856
   14   -0.003072    1.698655    2.333181   10.948427     1.250204    17.236156
   15    2.931346    3.394903    4.648601   10.972285     1.258349    17.411048
   16   -4.409597   12.725539    6.976420   11.114437     1.275644    22.572573
   17    5.879080    0.000000    0.000000   11.062788     1.279084   131.356998
   18    8.817643    1.696096    2.338347   10.952349     1.263632    17.247697
   19    5.872488    3.390499    4.645502   10.943808     1.247907    17.244146
   20    5.861773    0.001031    6.998216   11.072190     1.288655    24.341021
   21    4.409310    2.545716    0.000000   11.042703     1.276717    92.347267
   22    7.348453    4.242232    2.343563   10.918279     1.252367    17.075469
   23    7.334917    0.848640    4.638663   10.978769     1.261625    17.422589
   24    4.391643    2.550808    6.999741   11.090304     1.285630    24.090669
   25    7.348850    2.545716    0.000000   11.021318     1.277943   142.614876
   26    4.408854    4.243556    2.338397   10.958458     1.258911    17.287647
   27   10.291418    0.841308    4.648798   10.968521     1.270291    17.385302
   28    7.356052    2.549713    6.983702   11.076242     1.274285    23.435490
   29    8.818620    0.000000    0.000000   11.052392     1.274097    95.462470
   30    5.878250    1.701213    2.327769   10.971098     1.263406    17.328485
   31    8.825116    3.389952    4.645354   10.938407     1.277289    17.213962
   32    8.795148    0.000891    6.972779   11.089837     1.264739    23.519829
   33   11.758160    0.000000    0.000000   11.017025     1.283384   127.056615
   34   11.756823    3.388985    4.637974   10.986812     1.263383    17.453661
   35   11.770028    0.003322    7.012484   11.092368     1.290924    24.001891
   36   10.288390    2.545716    0.000000   11.030966     1.273933    97.374738
   37   13.231987    0.842250    4.645600   10.954153     1.259273    17.293861
   38   10.294343    2.529220    6.999200   11.076158     1.283163    24.016095
   39   10.284495    4.239789    2.327474   10.974456     1.250955    17.349791
   40   11.758101    1.694098    2.335641   10.960737     1.252678    17.296525
   41   -2.939540    5.091432    0.000000   11.066804     1.274097   136.962411
   42   -0.002697    6.787070    2.333526   10.944083     1.256941    17.200645
   43   -2.935821    8.486349    4.637728   10.971081     1.268821    17.353342
   44   11.766824    5.076171    6.997773   11.076577     1.282416    24.358777
   45   -4.409310    7.637149    0.000000   11.050072     1.279084    96.821654
   46   -1.469623    9.337432    2.333329   10.945458     1.254911    17.208635
   47   -1.465015    5.935885    4.654604   10.964350     1.264824    17.371986
   48   10.300574    7.615612    6.971746   11.082753     1.272964    23.473665
   49   -1.469770    7.637149    0.000000   11.009927     1.274587   118.280069
   50   -4.409538    9.328535    2.332640   10.970263     1.270728    17.334699
   51    1.467639    5.943000    4.638023   10.980916     1.263255    17.412823
   52   -1.468866    7.646733    6.986555   11.084249     1.285520    23.507400
   53    0.000000    5.091432    0.000000   11.049467     1.283709    98.002395
   54   -2.935998    6.784486    2.335887   10.964338     1.264932    17.319607
   55    0.000419    8.486667    4.638417   10.928296     1.255900    17.121633
   56    0.018644    5.078004    7.000627   11.088202     1.291906    24.079128
   57    2.939540    5.091432    0.000000   11.036503     1.283391    96.153160
   58    5.883489    6.786625    2.327573   10.961097     1.254303    17.270779
   59    2.941098    8.491847    4.654653   10.954422     1.255704    17.313393
   60    2.952290    5.112473    6.971844   11.093139     1.281110    23.550014
   61    1.469770    7.637149    0.000000   11.015191     1.284358   120.668185
   62    4.408149    9.335549    2.337905   10.990728     1.263658    17.463427
   63    4.416615    5.951655    4.638269   10.959567     1.254954    17.310729
   64    1.462223    7.634030    6.987047   11.066250     1.277427    23.406194
   65    4.409310    7.637149    0.000000   11.068152     1.280140   132.966535
   66    1.472489    9.332799    2.333427   10.951439     1.254166    17.245034
   67    7.349239    5.947111    4.644961   10.964731     1.255824    17.363996
   68    4.418746    7.651761    6.998265   11.070192     1.278637    24.241590
   69    5.879080    5.091432    0.000000   11.018446     1.280628   121.212391
   70    2.941326    6.793613    2.335887   10.959678     1.265315    17.290310
   71    5.884423    8.486514    4.638761   10.993242     1.257515    17.490060
   72    5.879352    5.083426    6.983702   11.074007     1.284069    23.448807
   73    8.818620    5.091432    0.000000   11.038740     1.277943   121.899529
   74    8.824308    8.491389    4.648995   10.975182     1.253638    17.429691
   75    8.811955    5.095722    6.983653   11.065835     1.284904    23.343162
   76    7.348850    7.637149    0.000000   11.041893     1.276717    93.027303
   77   10.295687    5.927076    4.638319   10.980386     1.274062    17.425252
   78    7.361475    7.649979    6.999347   11.090978     1.297537    24.140384
   79    7.351606    9.335561    2.335986   10.962558     1.258244    17.311617
   80    8.819671    6.788038    2.338151   10.957730     1.248332    17.287647
   81   -5.879080   10.182865    0.000000   11.023163     1.277207   125.634399
   82   -2.940047   11.877612    2.338003   10.991323     1.267029    17.467865
   83    8.809750   10.192068    7.012336   11.080804     1.298871    23.934420
   84   -4.414234   11.027202    4.641074   10.978560     1.278315    17.403058
   85   -1.475796   11.029799    4.654752   10.970106     1.260717    17.406609
   86   -2.939540   10.182865    0.000000   11.035070     1.280549    97.590468
   87   -5.876324   11.881074    2.333575   10.936445     1.258696    17.163359
   88   -2.961462   10.174222    7.000971   11.087991     1.278824    24.111087
   89    0.000000   10.182865    0.000000   11.030617     1.274587   138.459200
   90    2.934940   11.882818    2.332345   10.972279     1.259564    17.350679
   91    0.007231   10.179326    6.986998   11.069000     1.284080    23.365356
   92    1.469770   11.028654    4.638319   10.977838     1.259502    17.395068
   93    4.408575   11.037436    4.640729   10.982344     1.264854    17.428803
   94    2.939540   10.182865    0.000000   11.049653     1.283709    98.264289
   95   -0.005144   11.878795    2.336232   10.966797     1.251598    17.331148
   96    2.942744   10.205929    7.001168   11.088880     1.282417    24.123516
   97    5.879080   10.182865    0.000000   11.054096     1.265736    91.812826
   98    5.876140   10.185181    6.977207   11.118362     1.283330    22.645371
   99    7.351540   11.037054    4.645945   10.961443     1.260028    17.338250
  100    5.879278   11.876492    2.333083   10.935276     1.246746    17.158920
  101    1.993361    0.805566   14.543589    0.309304     0.022341     1.814613
  102    1.990980    0.806457   22.048717    0.290468     0.012955     2.028566
  103    3.382580    4.250977   14.496455    0.313058     0.035590     1.748029
  104    3.384101    4.246560   22.011029    0.307573     0.034805    13.541236
  105    0.300796    2.129530   10.813067    0.294055     0.014707     1.723172
  106    0.299039    2.125851   18.285821    0.309168     0.018726     2.088047
  107   -1.968507    5.020814   10.745515    0.300768     0.079130     1.752468
  108   -1.984785    5.045317   18.246461    0.342307     0.118635     1.938901
  109    1.693638    1.325491   10.812821    0.294916     0.014760     1.689436
  110    1.691955    1.321710   18.285673    0.306573     0.019074     1.811061
  111    5.331885    0.804879   10.745318    0.306006     0.078487     1.777326
  112    5.362573    0.803555   18.245969    0.342466     0.118646     2.062302
  113   -0.298679    2.128970   14.543737    0.309368     0.022291     1.821715
  114   -0.296820    2.127353   22.048766    0.290095     0.013112    11.766573
  115    1.990583    5.054825   14.496800    0.311697     0.035867     1.987729
  116    1.986571    5.053425   22.011521    0.307631     0.033991    13.570532
  117   -4.879394   12.723477    9.233439    0.366532     0.026139     2.170610
  118   -4.840342   12.727321   16.665553    0.359477     0.076042     2.396993
  119   -3.910786   12.726252   10.537053    0.316900     0.033327     1.571362
  120   -3.914901   12.727626   18.004887    0.293064     0.036437     1.641496
  121    2.377640    4.126771    9.173366    0.413654     0.083838     2.365921
  122    2.415920    4.184572   16.637165    0.291319     0.090151     2.016138
  123    1.936400    3.355623   10.530313    0.315079     0.099924     1.686773
  124    1.956212    3.388208   17.989635    0.360078     0.105680     2.051649
  125   13.458853    2.137294    9.233341    0.369326     0.026750     2.183927
  126   13.442715    2.171738   16.665849    0.348818     0.075929     2.372135
  127   12.976548    2.977050   10.537053    0.312832     0.032618     1.556270
  128   12.980053    2.973091   18.005280    0.292228     0.036766     1.636170
  129    4.825666    0.001400   12.891932    0.290275     0.028570     2.038332
  130    4.836278    0.000127   20.381955    0.349866     0.093941     2.505302
  131    3.912572    0.001044   14.246616    0.273059     0.040252     1.409787
  132   -3.435426   12.728097   21.744166    0.278173     0.034951     2.346390
  133    1.255331    2.174067   12.935868    0.344888     0.067173     2.256725
  134    1.253853    2.171381   20.414624    0.343129     0.068870     2.263827
  135    1.720719    2.979964   14.270822    0.361046     0.124625     1.979739
  136    1.719330    2.977228   21.764486    0.354182     0.135646     2.414749
  137   -2.411231    4.180244   12.892522    0.280124     0.028783     2.025903
  138   12.279568    4.187920   20.382152    0.350435     0.090411     2.510628
  139   -1.955095    3.388947   14.247059    0.273237     0.039931     1.415114
  140   12.740591    3.388539   21.744412    0.283308     0.034630     2.383676
  141    9.326822    0.805210   14.496701    0.310233     0.035441     1.734713
  142    9.327976    0.805656   22.011718    0.307958     0.033634    14.150249
  143   10.724779    4.235053   14.490699    0.307600     0.028018     1.638833
  144   10.727116    4.239101   22.001977    0.301104     0.041222     2.563007
  145    5.653919    1.326942   14.490010    0.308538     0.074110     1.751581
  146    5.656057    1.318808   22.002419    0.335223     0.111620     5.817591
  147    7.636881    2.121091   10.708516    0.302499     0.025003     1.833256
  148    7.642892    2.124604   18.231110    0.311948     0.029747     1.820827
  149    5.365153    5.052928   10.707434    0.318135     0.111160     1.834144
  150    5.367453    5.045406   18.230815    0.315807     0.072625     1.799520
  151    3.972149    4.241430   10.716585    0.295673     0.012521     1.571362
  152    3.973141    4.239585   18.240360    0.303535     0.037122     1.685885
  153    9.035507    1.320068   10.717274    0.294794     0.010545     1.630843
  154    9.037851    1.319903   18.240261    0.305602     0.036932     1.671681
  155   12.695778    0.802015   10.813067    0.308993     0.091358     1.630843
  156   12.705089    0.802995   18.285427    0.332252     0.101503     1.959320
  157    7.047834    2.130955   14.479334    0.294416     0.018040     1.723172
  158    7.056109    2.125635   21.993465    0.305080     0.050331     1.795082
  159    9.331489    5.040098   14.479186    0.294302     0.016290     1.634394
  160    9.328064    5.047913   21.992530    0.305193     0.051280     1.764897
  161    2.580784   12.724762    9.174153    0.413301     0.081025     2.357931
  162    2.516136   12.728517   16.637657    0.285838     0.036420     1.991280
  163    3.469488   12.727015   10.531395    0.302024     0.003065     1.554494
  164    3.434985   12.727639   17.990422    0.271735     0.039164     1.492350
  165    9.804255    4.147621    9.145863    0.345038     0.046079     1.984178
  166    9.767445    4.185361   16.613647    0.308822     0.040171     2.227428
  167    9.295024    3.355827   10.465417    0.323949     0.101429     1.743591
  168    9.305819    3.388883   17.959622    0.348992     0.084234     2.167059
  169    6.037867    2.164406    9.145764    0.323513     0.046150     1.874094
  170    6.089749    2.177364   16.613401    0.314746     0.040009     2.250510
  171    5.606041    3.000738   10.465516    0.344818     0.036156     1.771999
  172    5.630711    2.974071   17.959967    0.335739     0.081631     1.908717
  173    4.837167   12.728110   12.935917    0.356945     0.066394     2.306440
  174    4.840011   12.727894   20.414034    0.357214     0.068415     2.315318
  175   11.257483    0.000560   14.271905    0.303915     0.030316     1.569587
  176    3.909676   12.727614   21.764388    0.318862     0.073158     2.125334
  177    8.597493    2.170707   12.857246    0.330905     0.058104     2.246959
  178    8.601109    2.168517   20.359569    0.274478     0.048483     1.933574
  179    9.063748    2.972480   14.200515    0.361334     0.143952     2.189254
  180    9.065211    2.973206   21.714154    0.345228     0.092498     2.146641
  181    4.928705    4.198790   12.857049    0.339842     0.059571     2.290460
  182    4.927161    4.193927   20.359470    0.307713     0.046703     2.222989
  183    5.390984    3.395298   14.200712    0.330749     0.068705     2.047210
  184    5.391961    3.389812   21.714646    0.336537     0.073787     1.930911
  185   -1.677956    7.169004   14.480957    0.292959     0.019478     1.713406
  186   -1.686855    7.173141   21.993662    0.305982     0.050001     1.801296
  187   -0.300862   10.601559   14.480760    0.294490     0.017629     1.626404
  188   -0.292639   10.602259   21.993170    0.305524     0.050703     1.974412
  189    1.687149    5.561372   10.719537    0.293228     0.010077     1.561597
  190    1.685760    5.560773   18.240999    0.304633     0.037741     1.678783
  191   -3.374805    8.484808   10.720128    0.301067     0.008664     1.771112
  192   -3.375334    8.485801   18.240803    0.308215     0.037338     1.674344
  193   -5.654198   11.396140   10.813559    0.306043     0.091920     1.628180
  194   -5.656696   11.404338   18.285477    0.332255     0.101230     1.963759
  195   -1.981735    7.673960   10.711469    0.297567     0.023217     1.690324
  196   -1.980919    7.680031   18.231947    0.305218     0.031050     1.808398
  197    1.693278    7.173752   10.710583    0.318900     0.111579     1.882971
  198    1.686392    7.171219   18.231651    0.317884     0.071843     1.795082
  199   -3.966365    8.479475   14.497685    0.314776     0.036278     1.747142
  200   -3.966527    8.480697   22.012309    0.308187     0.033054    13.770282
  201   -1.694829   11.405534   14.491043    0.307480     0.028381     1.637945
  202   -1.692506   11.409531   22.002075    0.301226     0.041155     2.657999
  203   -1.677213    5.559768   14.490748    0.310895     0.073450     1.751581
  204   -1.685679    5.557171   22.002026    0.334825     0.111601     5.499768
  205   -1.141644    6.315184    9.147191    0.317858     0.050916     1.816388
  206   -1.158230    6.361681   16.614090    0.319869     0.038873     2.256725
  207   -0.203607    6.356373   10.468320    0.342074     0.038658     1.767560
  208   -0.238830    6.362827   17.960852    0.337798     0.081871     1.923809
  209   -1.308646   10.560153    9.147732    0.335971     0.050534     1.953106
  210   -1.259710   10.551077   16.614385    0.309700     0.039248     2.219438
  211   -1.741751    9.726545   10.468517    0.326185     0.103233     1.745366
  212   -1.718198    9.752524   17.960360    0.350001     0.085422     2.178600
  213   -4.962024    8.602141    9.173464    0.411926     0.082048     2.349941
  214    9.765027    8.543105   16.637608    0.288041     0.036511     2.004596
  215    9.287763    9.369038   10.531100    0.298741     0.002326     1.541178
  216    9.305540    9.338654   17.990471    0.271755     0.039353     1.495013
  217    1.172729    6.368033   12.858574    0.338954     0.059434     2.284246
  218    1.169371    6.363540   20.360258    0.310853     0.047442     2.230979
  219    0.245510    6.366251   14.202188    0.334112     0.068861     2.062302
  220    0.240271    6.363769   21.715089    0.338472     0.073067     1.928248
  221   -2.419102    8.530453   12.860001    0.325128     0.057077     2.222989
  222   -2.422475    8.532630   20.360651    0.269089     0.048589     1.923809
  223   -1.957704    9.335676   14.202877    0.361480     0.146059     2.190141
  224   -1.957917    9.337140   21.715138    0.345581     0.093039     2.133324
  225    8.604048   10.553063   12.935769    0.356642     0.066532     2.307328
  226    8.602975   10.555430   20.414230    0.352754     0.068117     2.305552
  227   -5.628440    9.749329   14.271708    0.301992     0.030193     1.566036
  228    9.067606    9.749469   21.764585    0.313824     0.073393     2.118232
  229    5.670593    7.170188   14.490158    0.309182     0.027905     1.694763
  230    5.662723    7.169462   22.002567    0.303986     0.040430     5.380806
  231    7.050075   10.599828   14.542950    0.306658     0.022884     1.799520
  232    7.052258   10.599993   22.047438    0.290690     0.013251     2.096037
  233    1.981294    7.690812   14.479284    0.299656     0.084519     1.694763
  234    1.979207    7.679535   21.993071    0.330851     0.117372     2.042771
  235    9.041930    5.553874   10.708516    0.303804     0.024427     1.700977
  236    9.034676    5.556153   18.231455    0.304770     0.030122     1.808398
  237    3.982232    8.510240   10.745220    0.298807     0.031389     1.715182
  238    3.970334    8.484694   18.246264    0.311042     0.043367     1.845685
  239    1.686333   11.409073   10.720029    0.302824     0.104278     1.773775
  240    1.688891   11.406756   18.240261    0.336923     0.109512     1.900727
  241    0.287414   10.608178   10.712059    0.299649     0.023234     1.602434
  242    0.293954   10.601966   18.232045    0.313666     0.030905     1.835031
  243    5.376779    7.704674   10.745072    0.297684     0.030307     1.665466
  244    5.363235    7.680298   18.245969    0.311956     0.043229     1.835031
  245    9.036322    7.165606   10.716438    0.302375     0.105955     1.644160
  246    9.034000    7.166548   18.239917    0.337327     0.109341     1.902502
  247    3.374291    8.496061   14.490699    0.310058     0.028432     1.704528
  248    3.378002    8.488665   22.002272    0.304842     0.040807     2.773410
  249    5.654881   11.405318   14.543048    0.307347     0.022693     1.962871
  250    5.653794   11.407252   22.047290    0.291163     0.013077     2.188366
  251    5.669954    5.561232   14.478350    0.302074     0.085461     1.697426
  252    5.661517    5.553493   21.992678    0.330945     0.117173     2.096925
  253    6.204377    6.415116    9.145371    0.344563     0.048008     1.974412
  254    6.189422    6.364952   16.612958    0.321159     0.040347     2.270041
  255    7.144030    6.371253   10.465565    0.344847     0.101963     1.822603
  256    7.109094    6.363590   17.959524    0.337224     0.081869     2.042771
  257    6.111862   10.587532    9.235063    0.370500     0.093157     2.191029
  258    6.094225   10.554870   16.665111    0.343103     0.075674     2.326859
  259    5.627117    9.747726   10.537742    0.355757     0.130389     1.844797
  260    5.631468    9.753224   18.004296    0.355426     0.116654     2.055200
  261    2.447358    8.582169    9.147486    0.342561     0.049581     1.971749
  262    2.417757    8.542736   16.613499    0.319323     0.040197     2.262939
  263    1.943403    9.373760   10.469058    0.349930     0.105346     1.834144
  264    1.956602    9.338451   17.960065    0.336137     0.081506     2.042771
  265    8.520955    6.361528   12.857196    0.340384     0.059614     2.279807
  266    8.517097    6.364061   20.359421    0.311802     0.046497     2.238969
  267    7.594008    6.363680   14.200761    0.332829     0.068488     1.945116
  268    7.588276    6.362941   21.714499    0.338260     0.074094     2.013474
  269    4.934959    8.548413   12.891391    0.288208     0.029927     2.041883
  270    4.930307    8.538396   20.381807    0.312665     0.089329     2.164396
  271    5.392557    9.340131   14.245435    0.357609     0.101769     1.966422
  272    5.391668    9.338005   21.743674    0.351019     0.115922     2.811584
  273    1.248040   10.560776   12.859706    0.334883     0.059052     2.273592
  274    1.252560   10.558192   20.360012    0.308663     0.046662     2.230979
  275    1.714112    9.758634   14.202729    0.330888     0.069259     1.937126
  276    1.716375    9.753288   21.714843    0.338668     0.073824     2.026791
  277   13.003849    1.323391   14.542802    0.335775     0.101923     2.104027
  278   13.002614    1.319801   22.047979    0.301198     0.093052    11.449637
  279   11.334425    4.216495   10.746647    0.307012     0.034043     1.744478
  280   11.319676    4.241507   18.246953    0.311457     0.043933     1.848348
  281    9.339264    7.675551   14.496111    0.320471     0.068783     2.071180
  282    9.333730    7.673832   22.011226    0.339190     0.112948    14.104973
  283    7.650601   10.591796   10.814347    0.290363     0.018721     1.648599
  284    7.648183   10.599929   18.285673    0.309611     0.019599     1.808398
  285   -2.016701   11.923320   10.746204    0.304214     0.034811     1.735601
  286   -1.986541   11.923575   18.247002    0.311210     0.044049     1.713406
  287   -5.355621   11.923091   14.542605    0.335775     0.101781     1.983290
  288   -5.357929   11.920291   22.047979    0.301688     0.093081    11.535751
  289    5.347310   11.922111   10.814347    0.289543     0.018452     1.534963
  290    5.356099   11.923129   18.285575    0.309097     0.019809     1.803959
  291    1.977539   11.926311   14.497046    0.322264     0.067828     2.096037
  292    1.978928   11.920596   22.011472    0.338847     0.112514    13.936296
  293   -4.894834   12.724381   10.222909    7.343942     0.696066    22.058551
  294   -4.878247   12.727041   17.656942    7.354517     0.695945    25.275849
  295   -4.862543   12.728377   14.889862    7.348419     0.671654    25.345983
  296   -4.836440   12.727537   22.343575    7.306721     0.678170   240.769969
  297    2.417911    4.190593   10.156390    7.310052     0.711094    21.591581
  298    2.435306    4.218074   17.628110    7.354907     0.709699    25.449852
  299    2.445646    4.235448   14.861030    7.363691     0.684548    25.152448
  300    2.429133    4.205981   22.323255    7.280862     0.709872   220.194890
  301   13.466665    2.123840   10.222810    7.345197     0.696402    22.068317
  302   13.461352    2.138618   17.657237    7.366000     0.696125    25.297155
  303   -1.242911    2.153014   14.890108    7.349280     0.671340    25.387708
  304   13.440856    2.175034   22.343723    7.308597     0.677942   263.864554
  305    4.870516    0.002075   13.882582    7.443838     0.702496    25.872434
  306    4.876726    0.000127   21.373786    7.346184     0.709974    25.900842
  307   -2.493590   12.728466   11.114813    7.378097     0.711386    24.135945
  308   -2.469655   12.728174   18.608280    7.342967     0.693362    25.153336
  309    1.238134    2.144129   13.927650    7.309377     0.702987    25.048578
  310    1.235224    2.139216   21.406750    7.287633     0.708448    26.214227
  311    1.242786    2.152899   11.167704    7.386092     0.707730    24.253131
  312    1.241507    2.149870   18.636275    7.370876     0.671896    25.424995
  313   -2.433131    4.219168   13.883172    7.453250     0.702261    25.875097
  314   12.259432    4.223050   21.373983    7.340518     0.702396    25.867995
  315   -2.427531    4.205829   11.115207    7.381708     0.711940    24.171456
  316   12.257816    4.224909   18.608625    7.342805     0.693584    25.151560
  317    2.505443   12.727435   10.157177    7.318088     0.712203    21.588918
  318    2.476805   12.727525   17.628553    7.443172     0.701024    25.867107
  319    9.808143    0.001502   14.861818    7.362055     0.700841    25.233235
  320    2.491473   12.727321   22.323944    7.255774     0.708547   224.340800
  321    9.800845    4.191000   10.130559    7.363375     0.751818    21.765585
  322    9.789183    4.219372   17.604543    7.359703     0.719614    25.434760
  323    9.779365    4.212498   14.833773    7.379061     0.687654    25.282063
  324    9.765269    4.193304   22.292406    7.288187     0.714130   160.308236
  325    6.076793    2.145300   10.130510    7.358683     0.661623    21.738952
  326    6.108048    2.140273   17.604297    7.359899     0.677962    25.441863
  327    6.107166    2.156642   14.833921    7.383173     0.703781    25.367289
  328    6.097510    2.174360   22.293587    7.257681     0.688802   162.197422
  329   12.222328    0.000305   13.927699    7.349978     0.687807    25.234123
  330    4.877410   12.728110   21.406160    7.301962     0.691355    26.114796
  331    4.856076   12.726468   11.168688    7.382073     0.679491    24.303735
  332    4.864505   12.727397   18.636472    7.351775     0.672108    25.456067
  333    8.582112    2.139687   13.847994    7.326096     0.705582    25.289165
  334    8.584273    2.134647   21.351596    7.365378     0.725323    26.267493
  335    8.573786    2.141126   11.070435    7.383705     0.675963    24.297520
  336    8.583898    2.148559   18.585402    7.364584     0.684417    25.121376
  337    4.910377    4.228651   13.847748    7.343388     0.689203    25.341544
  338    4.906518    4.225787   21.351498    7.337218     0.686510    25.970089
  339    4.913860    4.231960   11.070139    7.371397     0.673667    24.340133
  340    4.917637    4.218799   18.585796    7.370263     0.691901    25.250103
  341   -1.179373    6.336466   10.131839    7.366757     0.659948    21.835720
  342   -1.199531    6.358881   17.604986    7.352963     0.676980    25.416117
  343   -1.185178    6.366964   14.834905    7.382286     0.704593    25.349534
  344   -1.165359    6.367154   22.293390    7.257610     0.689390   169.228602
  345   -1.271674   10.581906   10.132429    7.369985     0.749810    21.802872
  346   -1.241037   10.586603   17.605330    7.357640     0.718502    25.423219
  347   -1.241787   10.575732   14.834856    7.377966     0.687732    25.282063
  348   -1.251362   10.553750   22.292948    7.287883     0.714016   165.982896
  349   -4.926735    8.535035   10.156488    7.322524     0.711475    21.608449
  350    9.784391    8.508751   17.628553    7.440906     0.701162    25.847576
  351   -4.903542    8.494355   14.861768    7.359333     0.685187    25.251879
  352    9.776080    8.520958   22.324141    7.255105     0.708974   223.053526
  353    1.207600    6.366747   13.849372    7.341176     0.688662    25.355748
  354    1.207093    6.361490   21.352285    7.331720     0.680651    25.987844
  355    1.208438    6.372246   11.073633    7.373288     0.695524    24.344572
  356    1.195621    6.368275   18.586681    7.366564     0.691909    25.259869
  357   -2.438077    8.501916   13.850798    7.332978     0.705330    25.310472
  358   -2.443485    8.501228   21.352630    7.370943     0.725288    26.285249
  359   -2.433109    8.494915   11.074075    7.382227     0.689540    24.294857
  360   -2.430860    8.506854   18.586189    7.369123     0.692288    25.125815
  361   -6.110826   10.584948   13.927551    7.352158     0.687789    25.234123
  362    8.584383   10.587914   21.406356    7.311345     0.691119    26.127225
  363    8.592827   10.568757   11.168835    7.384715     0.679002    24.309061
  364    8.590490   10.576420   18.636620    7.350913     0.672623    25.435648
  365    6.167956    6.390448   10.130067    7.338614     0.654594    21.717645
  366    6.148320    6.366238   17.603854    7.353079     0.677288    25.371728
  367    6.162702    6.362712   14.833527    7.374624     0.689129    25.266083
  368    6.182889    6.359237   22.293390    7.265494     0.695150   182.673070
  369    6.119564   10.600031   10.224581    7.307824     0.714204    21.904078
  370    6.113075   10.587519   17.656499    7.316696     0.708926    25.111610
  371    6.105733   10.575185   14.889124    7.372699     0.671217    25.336217
  372    6.092189   10.551803   22.342246    7.313402     0.713991   241.754512