  93  93   0   0
  0.1016658E+02  0.9814900E-09  0.9814900E-09  0.9814900E-09  0.5000000E-15
  1.000000000000000E-004
  CAR 
 ice                                     
      9.59663450    -25.50890375  301     -1.98796457      1.00000000
    -25.509  0.0000E+00  0.0000E+00
    -25.392  0.0000E+00  0.0000E+00
    -25.275  0.0000E+00  0.0000E+00
    -25.158  0.0000E+00  0.0000E+00
    -25.041  0.0000E+00  0.0000E+00
    -24.924  0.0000E+00  0.0000E+00
    -24.807  0.0000E+00  0.0000E+00
    -24.690  0.0000E+00  0.0000E+00
    -24.573  0.0000E+00  0.0000E+00
    -24.456  0.0000E+00  0.0000E+00
    -24.339  0.3420E-02  0.4002E-03
    -24.222  0.3203E-01  0.4148E-02
    -24.105  0.3256E+00  0.4225E-01
    -23.988  0.2770E+01  0.3664E+00
    -23.871  0.8841E+01  0.1401E+01
    -23.754  0.4609E+01  0.1940E+01
    -23.637  0.2071E+01  0.2183E+01
    -23.520  0.8594E+01  0.3188E+01
    -23.403  0.1768E+02  0.5258E+01
    -23.286  0.1828E+02  0.7397E+01
    -23.169  0.6104E+01  0.8111E+01
    -23.052  0.9280E+01  0.9199E+01
    -22.934  0.1922E+02  0.1145E+02
    -22.817  0.1819E+02  0.1358E+02
    -22.700  0.1461E+02  0.1529E+02
    -22.583  0.2504E+02  0.1823E+02
    -22.466  0.1681E+02  0.2020E+02
    -22.349  0.1913E+02  0.2244E+02
    -22.232  0.2301E+02  0.2513E+02
    -22.115  0.1483E+02  0.2687E+02
    -21.998  0.2443E+02  0.2973E+02
    -21.881  0.2818E+02  0.3303E+02
    -21.764  0.3118E+02  0.3668E+02
    -21.647  0.2710E+02  0.3985E+02
    -21.530  0.1519E+02  0.4164E+02
    -21.413  0.3752E+01  0.4208E+02
    -21.296  0.7848E+01  0.4300E+02
    -21.179  0.2274E+02  0.4567E+02
    -21.062  0.2000E+02  0.4801E+02
    -20.945  0.1399E+02  0.4964E+02
    -20.828  0.1297E+02  0.5117E+02
    -20.711  0.2384E+02  0.5396E+02
    -20.594  0.2357E+02  0.5672E+02
    -20.477  0.9548E+01  0.5784E+02
    -20.360  0.2316E+01  0.5812E+02
    -20.243  0.6271E+01  0.5886E+02
    -20.126  0.8213E+01  0.5982E+02
    -20.009  0.4810E+01  0.6038E+02
    -19.892  0.9123E+01  0.6145E+02
    -19.775  0.4089E+01  0.6193E+02
    -19.658  0.5408E+00  0.6199E+02
    -19.541  0.5181E-01  0.6200E+02
    -19.424  0.0000E+00  0.6200E+02
    -19.307  0.0000E+00  0.6200E+02
    -19.190  0.0000E+00  0.6200E+02
    -19.073  0.0000E+00  0.6200E+02
    -18.956  0.0000E+00  0.6200E+02
    -18.839  0.0000E+00  0.6200E+02
    -18.722  0.0000E+00  0.6200E+02
    -18.605  0.0000E+00  0.6200E+02
    -18.488  0.0000E+00  0.6200E+02
    -18.371  0.0000E+00  0.6200E+02
    -18.254  0.0000E+00  0.6200E+02
    -18.137  0.0000E+00  0.6200E+02
    -18.020  0.0000E+00  0.6200E+02
    -17.903  0.0000E+00  0.6200E+02
    -17.786  0.0000E+00  0.6200E+02
    -17.669  0.0000E+00  0.6200E+02
    -17.552  0.0000E+00  0.6200E+02
    -17.435  0.0000E+00  0.6200E+02
    -17.318  0.0000E+00  0.6200E+02
    -17.201  0.0000E+00  0.6200E+02
    -17.084  0.0000E+00  0.6200E+02
    -16.967  0.0000E+00  0.6200E+02
    -16.850  0.0000E+00  0.6200E+02
    -16.733  0.0000E+00  0.6200E+02
    -16.616  0.0000E+00  0.6200E+02
    -16.498  0.0000E+00  0.6200E+02
    -16.381  0.0000E+00  0.6200E+02
    -16.264  0.0000E+00  0.6200E+02
    -16.147  0.0000E+00  0.6200E+02
    -16.030  0.0000E+00  0.6200E+02
    -15.913  0.0000E+00  0.6200E+02
    -15.796  0.0000E+00  0.6200E+02
    -15.679  0.0000E+00  0.6200E+02
    -15.562  0.0000E+00  0.6200E+02
    -15.445  0.0000E+00  0.6200E+02
    -15.328  0.0000E+00  0.6200E+02
    -15.211  0.0000E+00  0.6200E+02
    -15.094  0.0000E+00  0.6200E+02
    -14.977  0.0000E+00  0.6200E+02
    -14.860  0.0000E+00  0.6200E+02
    -14.743  0.0000E+00  0.6200E+02
    -14.626  0.0000E+00  0.6200E+02
    -14.509  0.0000E+00  0.6200E+02
    -14.392  0.0000E+00  0.6200E+02
    -14.275  0.0000E+00  0.6200E+02
    -14.158  0.0000E+00  0.6200E+02
    -14.041  0.0000E+00  0.6200E+02
    -13.924  0.0000E+00  0.6200E+02
    -13.807  0.0000E+00  0.6200E+02
    -13.690  0.0000E+00  0.6200E+02
    -13.573  0.0000E+00  0.6200E+02
    -13.456  0.0000E+00  0.6200E+02
    -13.339  0.0000E+00  0.6200E+02
    -13.222  0.0000E+00  0.6200E+02
    -13.105  0.0000E+00  0.6200E+02
    -12.988  0.0000E+00  0.6200E+02
    -12.871  0.0000E+00  0.6200E+02
    -12.754  0.0000E+00  0.6200E+02
    -12.637  0.0000E+00  0.6200E+02
    -12.520  0.0000E+00  0.6200E+02
    -12.403  0.0000E+00  0.6200E+02
    -12.286  0.0000E+00  0.6200E+02
    -12.169  0.6386E-03  0.6200E+02
    -12.052  0.7685E-02  0.6200E+02
    -11.935  0.7785E-01  0.6201E+02
    -11.818  0.7830E+00  0.6210E+02
    -11.701  0.6031E+01  0.6281E+02
    -11.584  0.1637E+02  0.6472E+02
    -11.467  0.1112E+02  0.6602E+02
    -11.350  0.9461E+01  0.6713E+02
    -11.233  0.7889E+01  0.6806E+02
    -11.116  0.1138E+02  0.6939E+02
    -10.999  0.1953E+02  0.7168E+02
    -10.882  0.1793E+02  0.7378E+02
    -10.765  0.1553E+02  0.7559E+02
    -10.648  0.4710E+01  0.7615E+02
    -10.531  0.1029E+02  0.7736E+02
    -10.414  0.2180E+02  0.7991E+02
    -10.297  0.2070E+02  0.8233E+02
    -10.179  0.2087E+02  0.8478E+02
    -10.062  0.2359E+02  0.8754E+02
     -9.945  0.1881E+02  0.8975E+02
     -9.828  0.1886E+02  0.9196E+02
     -9.711  0.2487E+02  0.9487E+02
     -9.594  0.2851E+02  0.9821E+02
     -9.477  0.1721E+02  0.1002E+03
     -9.360  0.1648E+02  0.1022E+03
     -9.243  0.2256E+02  0.1048E+03
     -9.126  0.2025E+02  0.1072E+03
     -9.009  0.1598E+02  0.1091E+03
     -8.892  0.2408E+02  0.1119E+03
     -8.775  0.1950E+02  0.1142E+03
     -8.658  0.1547E+02  0.1160E+03
     -8.541  0.1739E+02  0.1180E+03
     -8.424  0.1829E+02  0.1202E+03
     -8.307  0.1472E+02  0.1219E+03
     -8.190  0.1563E+02  0.1237E+03
     -8.073  0.2024E+02  0.1261E+03
     -7.956  0.1635E+02  0.1280E+03
     -7.839  0.1314E+02  0.1295E+03
     -7.722  0.1511E+02  0.1313E+03
     -7.605  0.1997E+02  0.1337E+03
     -7.488  0.2055E+02  0.1361E+03
     -7.371  0.1965E+02  0.1384E+03
     -7.254  0.1904E+02  0.1406E+03
     -7.137  0.1621E+02  0.1425E+03
     -7.020  0.1924E+02  0.1447E+03
     -6.903  0.2496E+02  0.1477E+03
     -6.786  0.2935E+02  0.1511E+03
     -6.669  0.2657E+02  0.1542E+03
     -6.552  0.2395E+02  0.1570E+03
     -6.435  0.2009E+02  0.1594E+03
     -6.318  0.1340E+02  0.1610E+03
     -6.201  0.1971E+02  0.1633E+03
     -6.084  0.2262E+02  0.1659E+03
     -5.967  0.2289E+02  0.1686E+03
     -5.850  0.1966E+02  0.1709E+03
     -5.733  0.1425E+02  0.1726E+03
     -5.616  0.1890E+02  0.1748E+03
     -5.499  0.3038E+02  0.1783E+03
     -5.382  0.2531E+02  0.1813E+03
     -5.265  0.1695E+02  0.1833E+03
     -5.148  0.2530E+02  0.1863E+03
     -5.031  0.3403E+02  0.1902E+03
     -4.914  0.2934E+02  0.1937E+03
     -4.797  0.2267E+02  0.1963E+03
     -4.680  0.2133E+02  0.1988E+03
     -4.563  0.2095E+02  0.2013E+03
     -4.446  0.3468E+02  0.2054E+03
     -4.329  0.5362E+02  0.2116E+03
     -4.212  0.5472E+02  0.2180E+03
     -4.095  0.3344E+02  0.2220E+03
     -3.978  0.3216E+02  0.2257E+03
     -3.860  0.2861E+02  0.2291E+03
     -3.743  0.3344E+02  0.2330E+03
     -3.626  0.3233E+02  0.2368E+03
     -3.509  0.3052E+02  0.2404E+03
     -3.392  0.2226E+02  0.2430E+03
     -3.275  0.1566E+02  0.2448E+03
     -3.158  0.1770E+02  0.2469E+03
     -3.041  0.8047E+01  0.2478E+03
     -2.924  0.1167E+01  0.2480E+03
     -2.807  0.9506E-01  0.2480E+03
     -2.690  0.0000E+00  0.2480E+03
     -2.573  0.0000E+00  0.2480E+03
     -2.456  0.0000E+00  0.2480E+03
     -2.339  0.0000E+00  0.2480E+03
     -2.222  0.0000E+00  0.2480E+03
     -2.105  0.0000E+00  0.2480E+03
     -1.988  0.0000E+00  0.2480E+03
     -1.871  0.0000E+00  0.2480E+03
     -1.754  0.0000E+00  0.2480E+03
     -1.637  0.0000E+00  0.2480E+03
     -1.520  0.0000E+00  0.2480E+03
     -1.403  0.0000E+00  0.2480E+03
     -1.286  0.0000E+00  0.2480E+03
     -1.169  0.0000E+00  0.2480E+03
     -1.052  0.0000E+00  0.2480E+03
     -0.935  0.0000E+00  0.2480E+03
     -0.818  0.0000E+00  0.2480E+03
     -0.701  0.0000E+00  0.2480E+03
     -0.584  0.0000E+00  0.2480E+03
     -0.467  0.0000E+00  0.2480E+03
     -0.350  0.0000E+00  0.2480E+03
     -0.233  0.0000E+00  0.2480E+03
     -0.116  0.0000E+00  0.2480E+03
      0.001  0.0000E+00  0.2480E+03
      0.118  0.0000E+00  0.2480E+03
      0.235  0.4278E-05  0.2480E+03
      0.352  0.1440E-03  0.2480E+03
      0.469  0.1546E-02  0.2480E+03
      0.586  0.1587E-01  0.2480E+03
      0.703  0.1390E+00  0.2480E+03
      0.820  0.6578E+00  0.2481E+03
      0.937  0.1448E+01  0.2483E+03
      1.054  0.2259E+01  0.2485E+03
      1.171  0.3045E+01  0.2489E+03
      1.288  0.3326E+01  0.2493E+03
      1.405  0.3175E+01  0.2496E+03
      1.522  0.2895E+01  0.2500E+03
      1.639  0.3263E+01  0.2504E+03
      1.756  0.4468E+01  0.2509E+03
      1.873  0.4961E+01  0.2515E+03
      1.990  0.4116E+01  0.2520E+03
      2.107  0.4505E+01  0.2525E+03
      2.224  0.5411E+01  0.2531E+03
      2.341  0.5569E+01  0.2538E+03
      2.459  0.6361E+01  0.2545E+03
      2.576  0.7364E+01  0.2554E+03
      2.693  0.7683E+01  0.2563E+03
      2.810  0.8408E+01  0.2573E+03
      2.927  0.9344E+01  0.2584E+03
      3.044  0.8611E+01  0.2594E+03
      3.161  0.8086E+01  0.2603E+03
      3.278  0.8921E+01  0.2614E+03
      3.395  0.9900E+01  0.2625E+03
      3.512  0.1044E+02  0.2637E+03
      3.629  0.1063E+02  0.2650E+03
      3.746  0.1062E+02  0.2662E+03
      3.863  0.1070E+02  0.2675E+03
      3.980  0.1192E+02  0.2689E+03
      4.097  0.1344E+02  0.2705E+03
      4.214  0.1409E+02  0.2721E+03
      4.331  0.1466E+02  0.2738E+03
      4.448  0.1510E+02  0.2756E+03
      4.565  0.1485E+02  0.2773E+03
      4.682  0.1446E+02  0.2790E+03
      4.799  0.1447E+02  0.2807E+03
      4.916  0.1474E+02  0.2824E+03
      5.033  0.1545E+02  0.2843E+03
      5.150  0.1802E+02  0.2864E+03
      5.267  0.2037E+02  0.2888E+03
      5.384  0.2113E+02  0.2912E+03
      5.501  0.2016E+02  0.2936E+03
      5.618  0.2078E+02  0.2960E+03
      5.735  0.2220E+02  0.2986E+03
      5.852  0.2227E+02  0.3012E+03
      5.969  0.2303E+02  0.3039E+03
      6.086  0.2425E+02  0.3068E+03
      6.203  0.2526E+02  0.3097E+03
      6.320  0.2658E+02  0.3129E+03
      6.437  0.2777E+02  0.3161E+03
      6.554  0.2872E+02  0.3195E+03
      6.671  0.2658E+02  0.3226E+03
      6.788  0.2436E+02  0.3254E+03
      6.905  0.2506E+02  0.3284E+03
      7.022  0.2434E+02  0.3312E+03
      7.139  0.2230E+02  0.3338E+03
      7.256  0.1993E+02  0.3362E+03
      7.373  0.1798E+02  0.3383E+03
      7.490  0.1623E+02  0.3402E+03
      7.607  0.1398E+02  0.3418E+03
      7.724  0.1047E+02  0.3431E+03
      7.841  0.5777E+01  0.3437E+03
      7.958  0.1841E+01  0.3440E+03
      8.075  0.3419E+00  0.3440E+03
      8.192  0.3435E-01  0.3440E+03
      8.309  0.1790E-02  0.3440E+03
      8.426  0.0000E+00  0.3440E+03
      8.543  0.0000E+00  0.3440E+03
      8.660  0.0000E+00  0.3440E+03
      8.778  0.0000E+00  0.3440E+03
      8.895  0.0000E+00  0.3440E+03
      9.012  0.0000E+00  0.3440E+03
      9.129  0.0000E+00  0.3440E+03
      9.246  0.0000E+00  0.3440E+03
      9.363  0.0000E+00  0.3440E+03
      9.480  0.0000E+00  0.3440E+03
      9.597  0.0000E+00  0.3440E+03
