Loading vasp/5.4.4-mpi-cuda
  Loading requirement: gcc/8.5.0 intel-compilers/19.0.4 cuda/10.1.1
    intel-mpi/2019.4
 running on   40 total cores
 distrk:  each k-point on   40 cores,    1 groups
 distr:  one band on   20 cores,    2 groups
 using from now: INCAR     
 vasp.5.4.4.18Apr17-6-g9f103f2a35 (build Dec 06 2019 17:20:26) complex          
  
 POSCAR found type information on POSCAR  O  H 
 POSCAR found :  2 types and      93 ions
 scaLAPACK will be used

 ----------------------------------------------------------------------------- 
|                                                                             |
|           W    W    AA    RRRRR   N    N  II  N    N   GGGG   !!!           |
|           W    W   A  A   R    R  NN   N  II  NN   N  G    G  !!!           |
|           W    W  A    A  R    R  N N  N  II  N N  N  G       !!!           |
|           W WW W  AAAAAA  RRRRR   N  N N  II  N  N N  G  GGG   !            |
|           WW  WW  A    A  R   R   N   NN  II  N   NN  G    G                |
|           W    W  A    A  R    R  N    N  II  N    N   GGGG   !!!           |
|                                                                             |
|      For optimal performance we recommend to set                            |
|        NCORE= 4 - approx SQRT( number of cores)                             |
|      NCORE specifies how many cores store one orbital (NPAR=cpu/NCORE).     |
|      This setting can  greatly improve the performance of VASP for DFT.     |
|      The default,   NCORE=1            might be grossly inefficient         |
|      on modern multi-core architectures or massively parallel machines.     |
|      Do your own testing !!!!                                               |
|      Unfortunately you need to use the default for GW and RPA calculations. |
|      (for HF NCORE is supported but not extensively tested yet)             |
|                                                                             |
 ----------------------------------------------------------------------------- 

 LDA part: xc-table for Pade appr. of Perdew
 POSCAR, INCAR and KPOINTS ok, starting setup
 FFT: planning ...
 WAVECAR not read
 WARNING: chargedensity file is incomplete
 WARNING: random wavefunctions but no delay for mixing, default for NELMDL
 entering main loop
       N       E                     dE             d eps       ncg     rms          rms(c)
RMM:   1     0.332297570455E+04    0.33230E+04   -0.74375E+04 86688   0.878E+02
RMM:   2     0.105258288754E+04   -0.22704E+04   -0.24376E+04 86688   0.253E+02
RMM:   3     0.888564536999E+02   -0.96373E+03   -0.10258E+04 86688   0.187E+02
RMM:   4    -0.343074710904E+03   -0.43193E+03   -0.36730E+03 86688   0.130E+02
RMM:   5    -0.450831457029E+03   -0.10776E+03   -0.98089E+02 86688   0.686E+01
RMM:   6    -0.478564988239E+03   -0.27734E+02   -0.25323E+02 86688   0.354E+01
RMM:   7    -0.485947649268E+03   -0.73827E+01   -0.70705E+01 86688   0.180E+01
RMM:   8    -0.488167844652E+03   -0.22202E+01   -0.20925E+01 86688   0.964E+00
RMM:   9    -0.489043164484E+03   -0.87532E+00   -0.85945E+00221725   0.512E+00
RMM:  10    -0.489165125181E+03   -0.12196E+00   -0.11489E+00235673   0.149E+00
RMM:  11    -0.489167371282E+03   -0.22461E-02   -0.38616E-02221811   0.315E-01
RMM:  12    -0.489168015070E+03   -0.64379E-03   -0.63132E-03223089   0.818E-02    0.396E+01
RMM:  13    -0.448013492687E+03    0.41155E+02   -0.14585E+02208857   0.242E+01    0.152E+01
RMM:  14    -0.446813523253E+03    0.12000E+01   -0.53513E+00218077   0.414E+00    0.958E+00
RMM:  15    -0.446328778999E+03    0.48474E+00   -0.16009E+00214292   0.353E+00    0.133E+00
RMM:  16    -0.446287155481E+03    0.41624E-01   -0.27987E-01221760   0.948E-01    0.511E-01
RMM:  17    -0.446297092516E+03   -0.99370E-02   -0.39750E-02208449   0.389E-01    0.298E-01
RMM:  18    -0.446294846950E+03    0.22456E-02   -0.72496E-03217085   0.190E-01    0.793E-02
RMM:  19    -0.446294124696E+03    0.72225E-03   -0.19992E-03218300   0.798E-02    0.404E-02
RMM:  20    -0.446293951774E+03    0.17292E-03   -0.45662E-04219941   0.355E-02    0.197E-02
RMM:  21    -0.446293917891E+03    0.33882E-04   -0.10350E-04220203   0.167E-02    0.940E-03
RMM:  22    -0.446293912072E+03    0.58196E-05   -0.23435E-05205709   0.826E-03    0.423E-03
RMM:  23    -0.446293912116E+03   -0.44225E-07   -0.79963E-06206040   0.568E-03
   1 F= -.44937692E+03 E0= -.44937692E+03  d E =-.144148E-09
