       N       E                     dE             d eps       ncg     rms          rms(c)
RMM:   1     0.332297570455E+04    0.33230E+04   -0.74375E+04 86688   0.878E+02
RMM:   2     0.105258288754E+04   -0.22704E+04   -0.24376E+04 86688   0.253E+02
RMM:   3     0.888564536999E+02   -0.96373E+03   -0.10258E+04 86688   0.187E+02
RMM:   4    -0.343074710904E+03   -0.43193E+03   -0.36730E+03 86688   0.130E+02
RMM:   5    -0.450831457029E+03   -0.10776E+03   -0.98089E+02 86688   0.686E+01
RMM:   6    -0.478564988239E+03   -0.27734E+02   -0.25323E+02 86688   0.354E+01
RMM:   7    -0.485947649268E+03   -0.73827E+01   -0.70705E+01 86688   0.180E+01
RMM:   8    -0.488167844652E+03   -0.22202E+01   -0.20925E+01 86688   0.964E+00
RMM:   9    -0.489043164484E+03   -0.87532E+00   -0.85945E+00221725   0.512E+00
RMM:  10    -0.489165125181E+03   -0.12196E+00   -0.11489E+00235673   0.149E+00
RMM:  11    -0.489167371282E+03   -0.22461E-02   -0.38616E-02221811   0.315E-01
RMM:  12    -0.489168015070E+03   -0.64379E-03   -0.63132E-03223089   0.818E-02    0.396E+01
RMM:  13    -0.448013492687E+03    0.41155E+02   -0.14585E+02208857   0.242E+01    0.152E+01
RMM:  14    -0.446813523253E+03    0.12000E+01   -0.53513E+00218077   0.414E+00    0.958E+00
RMM:  15    -0.446328778999E+03    0.48474E+00   -0.16009E+00214292   0.353E+00    0.133E+00
RMM:  16    -0.446287155481E+03    0.41624E-01   -0.27987E-01221760   0.948E-01    0.511E-01
RMM:  17    -0.446297092516E+03   -0.99370E-02   -0.39750E-02208449   0.389E-01    0.298E-01
RMM:  18    -0.446294846950E+03    0.22456E-02   -0.72496E-03217085   0.190E-01    0.793E-02
RMM:  19    -0.446294124696E+03    0.72225E-03   -0.19992E-03218300   0.798E-02    0.404E-02
RMM:  20    -0.446293951774E+03    0.17292E-03   -0.45662E-04219941   0.355E-02    0.197E-02
RMM:  21    -0.446293917891E+03    0.33882E-04   -0.10350E-04220203   0.167E-02    0.940E-03
RMM:  22    -0.446293912072E+03    0.58196E-05   -0.23435E-05205709   0.826E-03    0.423E-03
RMM:  23    -0.446293912116E+03   -0.44225E-07   -0.79963E-06206040   0.568E-03
   1 F= -.44937692E+03 E0= -.44937692E+03  d E =-.144148E-09
