  93  93   0   0
  0.1016658E+02  0.9814900E-09  0.9814900E-09  0.9814900E-09  0.5000000E-15
  1.000000000000000E-004
  CAR 
 ice                                     
      9.59985151    -25.00088701  301     -2.04895116      1.00000000
    -25.001  0.0000E+00  0.0000E+00
    -24.886  0.0000E+00  0.0000E+00
    -24.770  0.0000E+00  0.0000E+00
    -24.655  0.0000E+00  0.0000E+00
    -24.540  0.0000E+00  0.0000E+00
    -24.424  0.0000E+00  0.0000E+00
    -24.309  0.0000E+00  0.0000E+00
    -24.194  0.0000E+00  0.0000E+00
    -24.078  0.0000E+00  0.0000E+00
    -23.963  0.0000E+00  0.0000E+00
    -23.848  0.4751E-02  0.5480E-03
    -23.732  0.4288E-01  0.5494E-02
    -23.617  0.4254E+00  0.5456E-01
    -23.502  0.3631E+01  0.4734E+00
    -23.386  0.1457E+02  0.2154E+01
    -23.271  0.1511E+02  0.3896E+01
    -23.156  0.1215E+02  0.5297E+01
    -23.040  0.1501E+02  0.7028E+01
    -22.925  0.1947E+02  0.9277E+01
    -22.810  0.1298E+02  0.1077E+02
    -22.694  0.1474E+02  0.1248E+02
    -22.579  0.1605E+02  0.1433E+02
    -22.463  0.2134E+02  0.1679E+02
    -22.348  0.2781E+02  0.2000E+02
    -22.233  0.2652E+02  0.2306E+02
    -22.117  0.2278E+02  0.2570E+02
    -22.002  0.3371E+02  0.2959E+02
    -21.887  0.3575E+02  0.3372E+02
    -21.771  0.2869E+02  0.3703E+02
    -21.656  0.1923E+02  0.3925E+02
    -21.541  0.1448E+02  0.4093E+02
    -21.425  0.2014E+02  0.4326E+02
    -21.310  0.1975E+02  0.4553E+02
    -21.195  0.2838E+02  0.4881E+02
    -21.079  0.2488E+02  0.5168E+02
    -20.964  0.1696E+02  0.5364E+02
    -20.849  0.7716E+01  0.5453E+02
    -20.733  0.9512E+01  0.5563E+02
    -20.618  0.5064E+01  0.5622E+02
    -20.503  0.8967E+01  0.5726E+02
    -20.387  0.9258E+01  0.5833E+02
    -20.272  0.1356E+02  0.5989E+02
    -20.157  0.1351E+02  0.6145E+02
    -20.041  0.4175E+01  0.6193E+02
    -19.926  0.5257E+00  0.6199E+02
    -19.811  0.0000E+00  0.6200E+02
    -19.695  0.0000E+00  0.6200E+02
    -19.580  0.0000E+00  0.6200E+02
    -19.465  0.0000E+00  0.6200E+02
    -19.349  0.0000E+00  0.6200E+02
    -19.234  0.0000E+00  0.6200E+02
    -19.119  0.0000E+00  0.6200E+02
    -19.003  0.0000E+00  0.6200E+02
    -18.888  0.0000E+00  0.6200E+02
    -18.773  0.0000E+00  0.6200E+02
    -18.657  0.0000E+00  0.6200E+02
    -18.542  0.0000E+00  0.6200E+02
    -18.427  0.0000E+00  0.6200E+02
    -18.311  0.0000E+00  0.6200E+02
    -18.196  0.0000E+00  0.6200E+02
    -18.081  0.0000E+00  0.6200E+02
    -17.965  0.0000E+00  0.6200E+02
    -17.850  0.0000E+00  0.6200E+02
    -17.735  0.0000E+00  0.6200E+02
    -17.619  0.0000E+00  0.6200E+02
    -17.504  0.0000E+00  0.6200E+02
    -17.389  0.0000E+00  0.6200E+02
    -17.273  0.0000E+00  0.6200E+02
    -17.158  0.0000E+00  0.6200E+02
    -17.043  0.0000E+00  0.6200E+02
    -16.927  0.0000E+00  0.6200E+02
    -16.812  0.0000E+00  0.6200E+02
    -16.697  0.0000E+00  0.6200E+02
    -16.581  0.0000E+00  0.6200E+02
    -16.466  0.0000E+00  0.6200E+02
    -16.351  0.0000E+00  0.6200E+02
    -16.235  0.0000E+00  0.6200E+02
    -16.120  0.0000E+00  0.6200E+02
    -16.005  0.0000E+00  0.6200E+02
    -15.889  0.0000E+00  0.6200E+02
    -15.774  0.0000E+00  0.6200E+02
    -15.659  0.0000E+00  0.6200E+02
    -15.543  0.0000E+00  0.6200E+02
    -15.428  0.0000E+00  0.6200E+02
    -15.313  0.0000E+00  0.6200E+02
    -15.197  0.0000E+00  0.6200E+02
    -15.082  0.0000E+00  0.6200E+02
    -14.967  0.0000E+00  0.6200E+02
    -14.851  0.0000E+00  0.6200E+02
    -14.736  0.0000E+00  0.6200E+02
    -14.621  0.0000E+00  0.6200E+02
    -14.505  0.0000E+00  0.6200E+02
    -14.390  0.0000E+00  0.6200E+02
    -14.275  0.0000E+00  0.6200E+02
    -14.159  0.0000E+00  0.6200E+02
    -14.044  0.0000E+00  0.6200E+02
    -13.929  0.0000E+00  0.6200E+02
    -13.813  0.0000E+00  0.6200E+02
    -13.698  0.0000E+00  0.6200E+02
    -13.583  0.0000E+00  0.6200E+02
    -13.467  0.0000E+00  0.6200E+02
    -13.352  0.0000E+00  0.6200E+02
    -13.237  0.0000E+00  0.6200E+02
    -13.121  0.0000E+00  0.6200E+02
    -13.006  0.0000E+00  0.6200E+02
    -12.891  0.0000E+00  0.6200E+02
    -12.775  0.0000E+00  0.6200E+02
    -12.660  0.0000E+00  0.6200E+02
    -12.545  0.0000E+00  0.6200E+02
    -12.429  0.0000E+00  0.6200E+02
    -12.314  0.0000E+00  0.6200E+02
    -12.199  0.0000E+00  0.6200E+02
    -12.083  0.0000E+00  0.6200E+02
    -11.968  0.0000E+00  0.6200E+02
    -11.853  0.4274E-02  0.6200E+02
    -11.737  0.4082E-01  0.6201E+02
    -11.622  0.3983E+00  0.6205E+02
    -11.507  0.3249E+01  0.6243E+02
    -11.391  0.1076E+02  0.6367E+02
    -11.276  0.1236E+02  0.6509E+02
    -11.161  0.8661E+01  0.6609E+02
    -11.045  0.1053E+02  0.6730E+02
    -10.930  0.1797E+02  0.6938E+02
    -10.815  0.1810E+02  0.7147E+02
    -10.699  0.7206E+01  0.7230E+02
    -10.584  0.1158E+02  0.7364E+02
    -10.469  0.1618E+02  0.7551E+02
    -10.353  0.1966E+02  0.7778E+02
    -10.238  0.2403E+02  0.8055E+02
    -10.123  0.2810E+02  0.8379E+02
    -10.007  0.3284E+02  0.8758E+02
     -9.892  0.2297E+02  0.9023E+02
     -9.777  0.2756E+02  0.9341E+02
     -9.661  0.3331E+02  0.9726E+02
     -9.546  0.1947E+02  0.9951E+02
     -9.431  0.5451E+01  0.1001E+03
     -9.315  0.1022E+02  0.1013E+03
     -9.200  0.2565E+02  0.1043E+03
     -9.085  0.3183E+02  0.1080E+03
     -8.969  0.3219E+02  0.1117E+03
     -8.854  0.3270E+02  0.1154E+03
     -8.739  0.1825E+02  0.1176E+03
     -8.623  0.3933E+01  0.1180E+03
     -8.508  0.4571E+01  0.1186E+03
     -8.393  0.1464E+02  0.1202E+03
     -8.277  0.2079E+02  0.1226E+03
     -8.162  0.1516E+02  0.1244E+03
     -8.047  0.1093E+02  0.1257E+03
     -7.931  0.9157E+01  0.1267E+03
     -7.816  0.1464E+02  0.1284E+03
     -7.701  0.1277E+02  0.1299E+03
     -7.585  0.1261E+02  0.1313E+03
     -7.470  0.1821E+02  0.1334E+03
     -7.355  0.1815E+02  0.1355E+03
     -7.239  0.2678E+02  0.1386E+03
     -7.124  0.2921E+02  0.1420E+03
     -7.009  0.2547E+02  0.1449E+03
     -6.893  0.2554E+02  0.1479E+03
     -6.778  0.2376E+02  0.1506E+03
     -6.662  0.2427E+02  0.1534E+03
     -6.547  0.2574E+02  0.1564E+03
     -6.432  0.2397E+02  0.1592E+03
     -6.316  0.1917E+02  0.1614E+03
     -6.201  0.1730E+02  0.1634E+03
     -6.086  0.1607E+02  0.1652E+03
     -5.970  0.1902E+02  0.1674E+03
     -5.855  0.2221E+02  0.1700E+03
     -5.740  0.2078E+02  0.1724E+03
     -5.624  0.1922E+02  0.1746E+03
     -5.509  0.2628E+02  0.1777E+03
     -5.394  0.2260E+02  0.1803E+03
     -5.278  0.2065E+02  0.1827E+03
     -5.163  0.2099E+02  0.1851E+03
     -5.048  0.1688E+02  0.1870E+03
     -4.932  0.1753E+02  0.1891E+03
     -4.817  0.3084E+02  0.1926E+03
     -4.702  0.3403E+02  0.1965E+03
     -4.586  0.3334E+02  0.2004E+03
     -4.471  0.4036E+02  0.2051E+03
     -4.356  0.5659E+02  0.2116E+03
     -4.240  0.5949E+02  0.2185E+03
     -4.125  0.3972E+02  0.2230E+03
     -4.010  0.3274E+02  0.2268E+03
     -3.894  0.2815E+02  0.2301E+03
     -3.779  0.3178E+02  0.2338E+03
     -3.664  0.4340E+02  0.2388E+03
     -3.548  0.3158E+02  0.2424E+03
     -3.433  0.1965E+02  0.2447E+03
     -3.318  0.1498E+02  0.2464E+03
     -3.202  0.1058E+02  0.2476E+03
     -3.087  0.2728E+01  0.2480E+03
     -2.972  0.3028E+00  0.2480E+03
     -2.856  0.0000E+00  0.2480E+03
     -2.741  0.0000E+00  0.2480E+03
     -2.626  0.0000E+00  0.2480E+03
     -2.510  0.0000E+00  0.2480E+03
     -2.395  0.0000E+00  0.2480E+03
     -2.280  0.0000E+00  0.2480E+03
     -2.164  0.0000E+00  0.2480E+03
     -2.049  0.0000E+00  0.2480E+03
     -1.934  0.0000E+00  0.2480E+03
     -1.818  0.0000E+00  0.2480E+03
     -1.703  0.0000E+00  0.2480E+03
     -1.588  0.0000E+00  0.2480E+03
     -1.472  0.0000E+00  0.2480E+03
     -1.357  0.0000E+00  0.2480E+03
     -1.242  0.0000E+00  0.2480E+03
     -1.126  0.0000E+00  0.2480E+03
     -1.011  0.0000E+00  0.2480E+03
     -0.896  0.0000E+00  0.2480E+03
     -0.780  0.0000E+00  0.2480E+03
     -0.665  0.0000E+00  0.2480E+03
     -0.550  0.0000E+00  0.2480E+03
     -0.434  0.0000E+00  0.2480E+03
     -0.319  0.0000E+00  0.2480E+03
     -0.204  0.0000E+00  0.2480E+03
     -0.088  0.0000E+00  0.2480E+03
      0.027  0.3151E-05  0.2480E+03
      0.142  0.1819E-03  0.2480E+03
      0.258  0.2107E-02  0.2480E+03
      0.373  0.2144E-01  0.2480E+03
      0.488  0.1891E+00  0.2480E+03
      0.604  0.1021E+01  0.2481E+03
      0.719  0.2892E+01  0.2485E+03
      0.834  0.5498E+01  0.2491E+03
      0.950  0.5505E+01  0.2497E+03
      1.065  0.1927E+01  0.2500E+03
      1.180  0.3952E+00  0.2500E+03
      1.296  0.9627E+00  0.2501E+03
      1.411  0.3801E+01  0.2506E+03
      1.526  0.6266E+01  0.2513E+03
      1.642  0.4217E+01  0.2518E+03
      1.757  0.2203E+01  0.2520E+03
      1.872  0.2974E+01  0.2524E+03
      1.988  0.4947E+01  0.2529E+03
      2.103  0.4873E+01  0.2535E+03
      2.218  0.4598E+01  0.2540E+03
      2.334  0.5819E+01  0.2547E+03
      2.449  0.6346E+01  0.2554E+03
      2.564  0.6509E+01  0.2562E+03
      2.680  0.7106E+01  0.2570E+03
      2.795  0.7960E+01  0.2579E+03
      2.910  0.8000E+01  0.2589E+03
      3.026  0.8077E+01  0.2598E+03
      3.141  0.7774E+01  0.2607E+03
      3.256  0.8073E+01  0.2616E+03
      3.372  0.8401E+01  0.2626E+03
      3.487  0.9871E+01  0.2637E+03
      3.602  0.1101E+02  0.2650E+03
      3.718  0.1077E+02  0.2662E+03
      3.833  0.1098E+02  0.2675E+03
      3.948  0.1257E+02  0.2690E+03
      4.064  0.1351E+02  0.2705E+03
      4.179  0.1369E+02  0.2721E+03
      4.294  0.1346E+02  0.2737E+03
      4.410  0.1437E+02  0.2753E+03
      4.525  0.1520E+02  0.2771E+03
      4.640  0.1414E+02  0.2787E+03
      4.756  0.1449E+02  0.2804E+03
      4.871  0.1599E+02  0.2822E+03
      4.986  0.1663E+02  0.2841E+03
      5.102  0.1784E+02  0.2862E+03
      5.217  0.1939E+02  0.2884E+03
      5.332  0.2038E+02  0.2908E+03
      5.448  0.2074E+02  0.2932E+03
      5.563  0.2095E+02  0.2956E+03
      5.678  0.2136E+02  0.2981E+03
      5.794  0.2203E+02  0.3006E+03
      5.909  0.2252E+02  0.3032E+03
      6.024  0.2458E+02  0.3061E+03
      6.140  0.2565E+02  0.3090E+03
      6.255  0.2638E+02  0.3121E+03
      6.370  0.2662E+02  0.3151E+03
      6.486  0.2638E+02  0.3182E+03
      6.601  0.2545E+02  0.3211E+03
      6.716  0.2473E+02  0.3240E+03
      6.832  0.2364E+02  0.3267E+03
      6.947  0.2345E+02  0.3294E+03
      7.062  0.2315E+02  0.3321E+03
      7.178  0.2174E+02  0.3346E+03
      7.293  0.1934E+02  0.3368E+03
      7.408  0.1793E+02  0.3389E+03
      7.524  0.1584E+02  0.3407E+03
      7.639  0.1307E+02  0.3423E+03
      7.754  0.9280E+01  0.3433E+03
      7.870  0.4358E+01  0.3438E+03
      7.985  0.1172E+01  0.3440E+03
      8.100  0.2149E+00  0.3440E+03
      8.216  0.2537E-01  0.3440E+03
      8.331  0.1736E-02  0.3440E+03
      8.446  0.0000E+00  0.3440E+03
      8.562  0.0000E+00  0.3440E+03
      8.677  0.0000E+00  0.3440E+03
      8.793  0.0000E+00  0.3440E+03
      8.908  0.0000E+00  0.3440E+03
      9.023  0.0000E+00  0.3440E+03
      9.139  0.0000E+00  0.3440E+03
      9.254  0.0000E+00  0.3440E+03
      9.369  0.0000E+00  0.3440E+03
      9.485  0.0000E+00  0.3440E+03
      9.600  0.0000E+00  0.3440E+03
