  93  93   0   0
  0.1016658E+02  0.9814900E-09  0.9814900E-09  0.9814900E-09  0.5000000E-15
  1.000000000000000E-004
  CAR 
 ice                                     
      9.62555747    -25.41748472  301     -1.58810195      1.00000000
    -25.417  0.0000E+00  0.0000E+00
    -25.301  0.0000E+00  0.0000E+00
    -25.184  0.0000E+00  0.0000E+00
    -25.067  0.0000E+00  0.0000E+00
    -24.950  0.0000E+00  0.0000E+00
    -24.833  0.0000E+00  0.0000E+00
    -24.717  0.0000E+00  0.0000E+00
    -24.600  0.0000E+00  0.0000E+00
    -24.483  0.0000E+00  0.0000E+00
    -24.366  0.0000E+00  0.0000E+00
    -24.249  0.3483E-02  0.4069E-03
    -24.133  0.3247E-01  0.4200E-02
    -24.016  0.3287E+00  0.4260E-01
    -23.899  0.2785E+01  0.3679E+00
    -23.782  0.8867E+01  0.1404E+01
    -23.665  0.4824E+01  0.1967E+01
    -23.549  0.3691E+01  0.2398E+01
    -23.432  0.1091E+02  0.3672E+01
    -23.315  0.1603E+02  0.5545E+01
    -23.198  0.1777E+02  0.7621E+01
    -23.081  0.1284E+02  0.9121E+01
    -22.964  0.1756E+02  0.1117E+02
    -22.848  0.9066E+01  0.1224E+02
    -22.731  0.1479E+02  0.1397E+02
    -22.614  0.2420E+02  0.1680E+02
    -22.497  0.2232E+02  0.1940E+02
    -22.380  0.1691E+02  0.2138E+02
    -22.264  0.2087E+02  0.2382E+02
    -22.147  0.2388E+02  0.2662E+02
    -22.030  0.3020E+02  0.3015E+02
    -21.913  0.2930E+02  0.3358E+02
    -21.796  0.2827E+02  0.3688E+02
    -21.680  0.2329E+02  0.3960E+02
    -21.563  0.1364E+02  0.4120E+02
    -21.446  0.2197E+02  0.4376E+02
    -21.329  0.2461E+02  0.4665E+02
    -21.212  0.1017E+02  0.4783E+02
    -21.096  0.3237E+01  0.4821E+02
    -20.979  0.8357E+01  0.4919E+02
    -20.862  0.9934E+01  0.5036E+02
    -20.745  0.1409E+02  0.5200E+02
    -20.628  0.1316E+02  0.5354E+02
    -20.511  0.5015E+01  0.5413E+02
    -20.395  0.9941E+01  0.5529E+02
    -20.278  0.1722E+02  0.5731E+02
    -20.161  0.5613E+01  0.5797E+02
    -20.044  0.3615E+01  0.5839E+02
    -19.927  0.9512E+01  0.5951E+02
    -19.811  0.8759E+01  0.6053E+02
    -19.694  0.9398E+01  0.6163E+02
    -19.577  0.2819E+01  0.6196E+02
    -19.460  0.3258E+00  0.6200E+02
    -19.343  0.0000E+00  0.6200E+02
    -19.227  0.0000E+00  0.6200E+02
    -19.110  0.0000E+00  0.6200E+02
    -18.993  0.0000E+00  0.6200E+02
    -18.876  0.0000E+00  0.6200E+02
    -18.759  0.0000E+00  0.6200E+02
    -18.642  0.0000E+00  0.6200E+02
    -18.526  0.0000E+00  0.6200E+02
    -18.409  0.0000E+00  0.6200E+02
    -18.292  0.0000E+00  0.6200E+02
    -18.175  0.0000E+00  0.6200E+02
    -18.058  0.0000E+00  0.6200E+02
    -17.942  0.0000E+00  0.6200E+02
    -17.825  0.0000E+00  0.6200E+02
    -17.708  0.0000E+00  0.6200E+02
    -17.591  0.0000E+00  0.6200E+02
    -17.474  0.0000E+00  0.6200E+02
    -17.358  0.0000E+00  0.6200E+02
    -17.241  0.0000E+00  0.6200E+02
    -17.124  0.0000E+00  0.6200E+02
    -17.007  0.0000E+00  0.6200E+02
    -16.890  0.0000E+00  0.6200E+02
    -16.774  0.0000E+00  0.6200E+02
    -16.657  0.0000E+00  0.6200E+02
    -16.540  0.0000E+00  0.6200E+02
    -16.423  0.0000E+00  0.6200E+02
    -16.306  0.0000E+00  0.6200E+02
    -16.189  0.0000E+00  0.6200E+02
    -16.073  0.0000E+00  0.6200E+02
    -15.956  0.0000E+00  0.6200E+02
    -15.839  0.0000E+00  0.6200E+02
    -15.722  0.0000E+00  0.6200E+02
    -15.605  0.0000E+00  0.6200E+02
    -15.489  0.0000E+00  0.6200E+02
    -15.372  0.0000E+00  0.6200E+02
    -15.255  0.0000E+00  0.6200E+02
    -15.138  0.0000E+00  0.6200E+02
    -15.021  0.0000E+00  0.6200E+02
    -14.905  0.0000E+00  0.6200E+02
    -14.788  0.0000E+00  0.6200E+02
    -14.671  0.0000E+00  0.6200E+02
    -14.554  0.0000E+00  0.6200E+02
    -14.437  0.0000E+00  0.6200E+02
    -14.321  0.0000E+00  0.6200E+02
    -14.204  0.0000E+00  0.6200E+02
    -14.087  0.0000E+00  0.6200E+02
    -13.970  0.0000E+00  0.6200E+02
    -13.853  0.0000E+00  0.6200E+02
    -13.736  0.0000E+00  0.6200E+02
    -13.620  0.0000E+00  0.6200E+02
    -13.503  0.0000E+00  0.6200E+02
    -13.386  0.0000E+00  0.6200E+02
    -13.269  0.0000E+00  0.6200E+02
    -13.152  0.0000E+00  0.6200E+02
    -13.036  0.0000E+00  0.6200E+02
    -12.919  0.0000E+00  0.6200E+02
    -12.802  0.0000E+00  0.6200E+02
    -12.685  0.1665E-02  0.6200E+02
    -12.568  0.1554E-01  0.6200E+02
    -12.452  0.1591E+00  0.6202E+02
    -12.335  0.1487E+01  0.6219E+02
    -12.218  0.7354E+01  0.6305E+02
    -12.101  0.6737E+01  0.6384E+02
    -11.984  0.1240E+01  0.6399E+02
    -11.868  0.2698E+00  0.6402E+02
    -11.751  0.1348E+01  0.6418E+02
    -11.634  0.7764E+01  0.6508E+02
    -11.517  0.1324E+02  0.6663E+02
    -11.400  0.9466E+01  0.6773E+02
    -11.283  0.2081E+01  0.6798E+02
    -11.167  0.7280E+00  0.6807E+02
    -11.050  0.3974E+01  0.6853E+02
    -10.933  0.8972E+01  0.6958E+02
    -10.816  0.3291E+01  0.6996E+02
    -10.699  0.1513E+01  0.7014E+02
    -10.583  0.7976E+01  0.7108E+02
    -10.466  0.2005E+02  0.7342E+02
    -10.349  0.2632E+02  0.7649E+02
    -10.232  0.3731E+02  0.8085E+02
    -10.115  0.3391E+02  0.8482E+02
     -9.999  0.2683E+02  0.8795E+02
     -9.882  0.2351E+02  0.9071E+02
     -9.765  0.2828E+02  0.9402E+02
     -9.648  0.2952E+02  0.9747E+02
     -9.531  0.2806E+02  0.1008E+03
     -9.414  0.2460E+02  0.1036E+03
     -9.298  0.1668E+02  0.1056E+03
     -9.181  0.6203E+01  0.1063E+03
     -9.064  0.1542E+02  0.1081E+03
     -8.947  0.2423E+02  0.1110E+03
     -8.830  0.2199E+02  0.1135E+03
     -8.714  0.1764E+02  0.1156E+03
     -8.597  0.1256E+02  0.1171E+03
     -8.480  0.8610E+01  0.1181E+03
     -8.363  0.9481E+01  0.1192E+03
     -8.246  0.1246E+02  0.1206E+03
     -8.130  0.1693E+02  0.1226E+03
     -8.013  0.1985E+02  0.1249E+03
     -7.896  0.1487E+02  0.1267E+03
     -7.779  0.1908E+02  0.1289E+03
     -7.662  0.2419E+02  0.1317E+03
     -7.546  0.1928E+02  0.1340E+03
     -7.429  0.2024E+02  0.1364E+03
     -7.312  0.2896E+02  0.1397E+03
     -7.195  0.2750E+02  0.1430E+03
     -7.078  0.2256E+02  0.1456E+03
     -6.961  0.2411E+02  0.1484E+03
     -6.845  0.2384E+02  0.1512E+03
     -6.728  0.1895E+02  0.1534E+03
     -6.611  0.2496E+02  0.1563E+03
     -6.494  0.1659E+02  0.1583E+03
     -6.377  0.1201E+02  0.1597E+03
     -6.261  0.1433E+02  0.1614E+03
     -6.144  0.2058E+02  0.1638E+03
     -6.027  0.2195E+02  0.1663E+03
     -5.910  0.2460E+02  0.1692E+03
     -5.793  0.2270E+02  0.1719E+03
     -5.677  0.2115E+02  0.1743E+03
     -5.560  0.2325E+02  0.1771E+03
     -5.443  0.2248E+02  0.1797E+03
     -5.326  0.2699E+02  0.1829E+03
     -5.209  0.2570E+02  0.1859E+03
     -5.093  0.2227E+02  0.1885E+03
     -4.976  0.1762E+02  0.1905E+03
     -4.859  0.1831E+02  0.1927E+03
     -4.742  0.2869E+02  0.1960E+03
     -4.625  0.3638E+02  0.2003E+03
     -4.508  0.3436E+02  0.2043E+03
     -4.392  0.4671E+02  0.2097E+03
     -4.275  0.4244E+02  0.2147E+03
     -4.158  0.4030E+02  0.2194E+03
     -4.041  0.4200E+02  0.2243E+03
     -3.924  0.3678E+02  0.2286E+03
     -3.808  0.2420E+02  0.2315E+03
     -3.691  0.1109E+02  0.2328E+03
     -3.574  0.2586E+02  0.2358E+03
     -3.457  0.3062E+02  0.2394E+03
     -3.340  0.1958E+02  0.2417E+03
     -3.224  0.1402E+02  0.2433E+03
     -3.107  0.1305E+02  0.2448E+03
     -2.990  0.8485E+01  0.2458E+03
     -2.873  0.4317E+01  0.2463E+03
     -2.756  0.8981E+01  0.2474E+03
     -2.640  0.4464E+01  0.2479E+03
     -2.523  0.6151E+00  0.2480E+03
     -2.406  0.6193E-01  0.2480E+03
     -2.289  0.0000E+00  0.2480E+03
     -2.172  0.0000E+00  0.2480E+03
     -2.055  0.0000E+00  0.2480E+03
     -1.939  0.0000E+00  0.2480E+03
     -1.822  0.0000E+00  0.2480E+03
     -1.705  0.0000E+00  0.2480E+03
     -1.588  0.0000E+00  0.2480E+03
     -1.471  0.0000E+00  0.2480E+03
     -1.355  0.0000E+00  0.2480E+03
     -1.238  0.0000E+00  0.2480E+03
     -1.121  0.0000E+00  0.2480E+03
     -1.004  0.0000E+00  0.2480E+03
     -0.887  0.0000E+00  0.2480E+03
     -0.771  0.0000E+00  0.2480E+03
     -0.654  0.0000E+00  0.2480E+03
     -0.537  0.0000E+00  0.2480E+03
     -0.420  0.0000E+00  0.2480E+03
     -0.303  0.0000E+00  0.2480E+03
     -0.186  0.0000E+00  0.2480E+03
     -0.070  0.0000E+00  0.2480E+03
      0.047  0.1325E-04  0.2480E+03
      0.164  0.2677E-03  0.2480E+03
      0.281  0.3068E-02  0.2480E+03
      0.398  0.3131E-01  0.2480E+03
      0.514  0.2631E+00  0.2480E+03
      0.631  0.1184E+01  0.2482E+03
      0.748  0.2846E+01  0.2485E+03
      0.865  0.4856E+01  0.2491E+03
      0.982  0.5011E+01  0.2497E+03
      1.098  0.2406E+01  0.2499E+03
      1.215  0.4597E+00  0.2500E+03
      1.332  0.9191E-01  0.2500E+03
      1.449  0.3974E+00  0.2501E+03
      1.566  0.1767E+01  0.2503E+03
      1.682  0.4218E+01  0.2508E+03
      1.799  0.5902E+01  0.2514E+03
      1.916  0.4937E+01  0.2520E+03
      2.033  0.5003E+01  0.2526E+03
      2.150  0.5911E+01  0.2533E+03
      2.267  0.5313E+01  0.2539E+03
      2.383  0.5377E+01  0.2545E+03
      2.500  0.6472E+01  0.2553E+03
      2.617  0.7158E+01  0.2561E+03
      2.734  0.7171E+01  0.2570E+03
      2.851  0.6598E+01  0.2577E+03
      2.967  0.6895E+01  0.2586E+03
      3.084  0.8092E+01  0.2595E+03
      3.201  0.8591E+01  0.2605E+03
      3.318  0.9391E+01  0.2616E+03
      3.435  0.1064E+02  0.2628E+03
      3.551  0.1199E+02  0.2643E+03
      3.668  0.1199E+02  0.2657E+03
      3.785  0.1121E+02  0.2670E+03
      3.902  0.1203E+02  0.2684E+03
      4.019  0.1338E+02  0.2699E+03
      4.135  0.1348E+02  0.2715E+03
      4.252  0.1314E+02  0.2730E+03
      4.369  0.1415E+02  0.2747E+03
      4.486  0.1553E+02  0.2765E+03
      4.603  0.1537E+02  0.2783E+03
      4.720  0.1462E+02  0.2800E+03
      4.836  0.1509E+02  0.2818E+03
      4.953  0.1575E+02  0.2836E+03
      5.070  0.1730E+02  0.2857E+03
      5.187  0.1899E+02  0.2879E+03
      5.304  0.1954E+02  0.2902E+03
      5.420  0.2021E+02  0.2925E+03
      5.537  0.2090E+02  0.2950E+03
      5.654  0.2197E+02  0.2975E+03
      5.771  0.2248E+02  0.3002E+03
      5.888  0.2290E+02  0.3028E+03
      6.004  0.2358E+02  0.3056E+03
      6.121  0.2510E+02  0.3085E+03
      6.238  0.2676E+02  0.3117E+03
      6.355  0.2586E+02  0.3147E+03
      6.472  0.2617E+02  0.3178E+03
      6.588  0.2620E+02  0.3208E+03
      6.705  0.2609E+02  0.3239E+03
      6.822  0.2503E+02  0.3268E+03
      6.939  0.2287E+02  0.3295E+03
      7.056  0.2155E+02  0.3320E+03
      7.173  0.2161E+02  0.3345E+03
      7.289  0.2029E+02  0.3369E+03
      7.406  0.1808E+02  0.3390E+03
      7.523  0.1551E+02  0.3408E+03
      7.640  0.1236E+02  0.3423E+03
      7.757  0.8762E+01  0.3433E+03
      7.873  0.4403E+01  0.3438E+03
      7.990  0.1257E+01  0.3440E+03
      8.107  0.2292E+00  0.3440E+03
      8.224  0.2431E-01  0.3440E+03
      8.341  0.1322E-02  0.3440E+03
      8.457  0.0000E+00  0.3440E+03
      8.574  0.0000E+00  0.3440E+03
      8.691  0.0000E+00  0.3440E+03
      8.808  0.0000E+00  0.3440E+03
      8.925  0.0000E+00  0.3440E+03
      9.042  0.0000E+00  0.3440E+03
      9.158  0.0000E+00  0.3440E+03
      9.275  0.0000E+00  0.3440E+03
      9.392  0.0000E+00  0.3440E+03
      9.509  0.0000E+00  0.3440E+03
      9.626  0.0000E+00  0.3440E+03
