       N       E                     dE             d eps       ncg     rms          rms(c)
RMM:   1     0.331690439534E+04    0.33169E+04   -0.74345E+04 86688   0.878E+02
RMM:   2     0.104986151413E+04   -0.22670E+04   -0.24329E+04 86688   0.253E+02
RMM:   3     0.865950671993E+02   -0.96327E+03   -0.10237E+04 86688   0.186E+02
RMM:   4    -0.343785653438E+03   -0.43038E+03   -0.36594E+03 86688   0.130E+02
RMM:   5    -0.451031490725E+03   -0.10725E+03   -0.97667E+02 86688   0.684E+01
RMM:   6    -0.478652880490E+03   -0.27621E+02   -0.25224E+02 86688   0.353E+01
RMM:   7    -0.486010492927E+03   -0.73576E+01   -0.70462E+01 86688   0.180E+01
RMM:   8    -0.488223546168E+03   -0.22131E+01   -0.20862E+01 86688   0.962E+00
RMM:   9    -0.489096711228E+03   -0.87317E+00   -0.85738E+00221704   0.511E+00
RMM:  10    -0.489218568353E+03   -0.12186E+00   -0.11479E+00235693   0.148E+00
RMM:  11    -0.489220796986E+03   -0.22286E-02   -0.38441E-02221799   0.313E-01
RMM:  12    -0.489221439008E+03   -0.64202E-03   -0.62971E-03223052   0.815E-02    0.395E+01
RMM:  13    -0.448083996918E+03    0.41137E+02   -0.14604E+02209543   0.242E+01    0.152E+01
RMM:  14    -0.446832921128E+03    0.12511E+01   -0.53492E+00218569   0.412E+00    0.960E+00
RMM:  15    -0.446288718602E+03    0.54420E+00   -0.16545E+00216261   0.357E+00    0.136E+00
RMM:  16    -0.446237841186E+03    0.50877E-01   -0.29588E-01221760   0.969E-01    0.537E-01
RMM:  17    -0.446242227852E+03   -0.43867E-02   -0.46446E-02210627   0.408E-01    0.322E-01
RMM:  18    -0.446238009733E+03    0.42181E-02   -0.11154E-02218002   0.228E-01    0.102E-01
RMM:  19    -0.446236753926E+03    0.12558E-02   -0.29944E-03219239   0.922E-02    0.386E-02
RMM:  20    -0.446236574722E+03    0.17920E-03   -0.56518E-04220962   0.380E-02    0.214E-02
RMM:  21    -0.446236550679E+03    0.24043E-04   -0.92622E-05220223   0.164E-02    0.868E-03
RMM:  22    -0.446236545898E+03    0.47813E-05   -0.21060E-05204686   0.826E-03    0.365E-03
RMM:  23    -0.446236545695E+03    0.20230E-06   -0.32929E-06173376   0.349E-03
   1 F= -.44929669E+03 E0= -.44929669E+03  d E =-.775304E-10
