  93  93   0   0
  0.1016658E+02  0.9814900E-09  0.9814900E-09  0.9814900E-09  0.5000000E-15
  1.000000000000000E-004
  CAR 
 ice                                     
      9.59810375    -25.08022849  301     -1.61444412      1.00000000
    -25.080  0.0000E+00  0.0000E+00
    -24.965  0.0000E+00  0.0000E+00
    -24.849  0.0000E+00  0.0000E+00
    -24.733  0.0000E+00  0.0000E+00
    -24.618  0.0000E+00  0.0000E+00
    -24.502  0.0000E+00  0.0000E+00
    -24.387  0.0000E+00  0.0000E+00
    -24.271  0.0000E+00  0.0000E+00
    -24.155  0.0000E+00  0.0000E+00
    -24.040  0.0000E+00  0.0000E+00
    -23.924  0.3515E-02  0.4064E-03
    -23.809  0.3461E-01  0.4407E-02
    -23.693  0.3441E+00  0.4418E-01
    -23.578  0.2919E+01  0.3816E+00
    -23.462  0.1123E+02  0.1679E+01
    -23.346  0.1628E+02  0.3561E+01
    -23.231  0.2084E+02  0.5971E+01
    -23.115  0.1664E+02  0.7894E+01
    -23.000  0.1164E+02  0.9240E+01
    -22.884  0.1096E+02  0.1051E+02
    -22.768  0.2279E+02  0.1315E+02
    -22.653  0.3498E+02  0.1719E+02
    -22.537  0.3382E+02  0.2110E+02
    -22.422  0.2450E+02  0.2393E+02
    -22.306  0.2190E+02  0.2647E+02
    -22.190  0.1511E+02  0.2822E+02
    -22.075  0.2046E+02  0.3059E+02
    -21.959  0.3062E+02  0.3413E+02
    -21.844  0.2626E+02  0.3717E+02
    -21.728  0.1273E+02  0.3864E+02
    -21.612  0.1364E+02  0.4022E+02
    -21.497  0.1850E+02  0.4237E+02
    -21.381  0.1630E+02  0.4425E+02
    -21.266  0.1459E+02  0.4594E+02
    -21.150  0.1304E+02  0.4745E+02
    -21.034  0.6595E+01  0.4822E+02
    -20.919  0.1090E+02  0.4948E+02
    -20.803  0.1574E+02  0.5131E+02
    -20.688  0.1469E+02  0.5300E+02
    -20.572  0.1190E+02  0.5438E+02
    -20.456  0.1058E+02  0.5560E+02
    -20.341  0.5873E+01  0.5628E+02
    -20.225  0.1384E+02  0.5789E+02
    -20.110  0.1470E+02  0.5959E+02
    -19.994  0.3308E+01  0.5997E+02
    -19.878  0.1634E+01  0.6016E+02
    -19.763  0.6822E+01  0.6095E+02
    -19.647  0.7351E+01  0.6180E+02
    -19.532  0.1510E+01  0.6198E+02
    -19.416  0.1656E+00  0.6200E+02
    -19.301  0.0000E+00  0.6200E+02
    -19.185  0.0000E+00  0.6200E+02
    -19.069  0.0000E+00  0.6200E+02
    -18.954  0.0000E+00  0.6200E+02
    -18.838  0.0000E+00  0.6200E+02
    -18.723  0.0000E+00  0.6200E+02
    -18.607  0.0000E+00  0.6200E+02
    -18.491  0.0000E+00  0.6200E+02
    -18.376  0.0000E+00  0.6200E+02
    -18.260  0.0000E+00  0.6200E+02
    -18.145  0.0000E+00  0.6200E+02
    -18.029  0.0000E+00  0.6200E+02
    -17.913  0.0000E+00  0.6200E+02
    -17.798  0.0000E+00  0.6200E+02
    -17.682  0.0000E+00  0.6200E+02
    -17.567  0.0000E+00  0.6200E+02
    -17.451  0.0000E+00  0.6200E+02
    -17.335  0.0000E+00  0.6200E+02
    -17.220  0.0000E+00  0.6200E+02
    -17.104  0.0000E+00  0.6200E+02
    -16.989  0.0000E+00  0.6200E+02
    -16.873  0.0000E+00  0.6200E+02
    -16.757  0.0000E+00  0.6200E+02
    -16.642  0.0000E+00  0.6200E+02
    -16.526  0.0000E+00  0.6200E+02
    -16.411  0.0000E+00  0.6200E+02
    -16.295  0.0000E+00  0.6200E+02
    -16.179  0.0000E+00  0.6200E+02
    -16.064  0.0000E+00  0.6200E+02
    -15.948  0.0000E+00  0.6200E+02
    -15.833  0.0000E+00  0.6200E+02
    -15.717  0.0000E+00  0.6200E+02
    -15.601  0.0000E+00  0.6200E+02
    -15.486  0.0000E+00  0.6200E+02
    -15.370  0.0000E+00  0.6200E+02
    -15.255  0.0000E+00  0.6200E+02
    -15.139  0.0000E+00  0.6200E+02
    -15.024  0.0000E+00  0.6200E+02
    -14.908  0.0000E+00  0.6200E+02
    -14.792  0.0000E+00  0.6200E+02
    -14.677  0.0000E+00  0.6200E+02
    -14.561  0.0000E+00  0.6200E+02
    -14.446  0.0000E+00  0.6200E+02
    -14.330  0.0000E+00  0.6200E+02
    -14.214  0.0000E+00  0.6200E+02
    -14.099  0.0000E+00  0.6200E+02
    -13.983  0.0000E+00  0.6200E+02
    -13.868  0.0000E+00  0.6200E+02
    -13.752  0.0000E+00  0.6200E+02
    -13.636  0.0000E+00  0.6200E+02
    -13.521  0.0000E+00  0.6200E+02
    -13.405  0.0000E+00  0.6200E+02
    -13.290  0.0000E+00  0.6200E+02
    -13.174  0.0000E+00  0.6200E+02
    -13.058  0.0000E+00  0.6200E+02
    -12.943  0.0000E+00  0.6200E+02
    -12.827  0.0000E+00  0.6200E+02
    -12.712  0.0000E+00  0.6200E+02
    -12.596  0.0000E+00  0.6200E+02
    -12.480  0.0000E+00  0.6200E+02
    -12.365  0.0000E+00  0.6200E+02
    -12.249  0.0000E+00  0.6200E+02
    -12.134  0.7269E-03  0.6200E+02
    -12.018  0.6608E-02  0.6200E+02
    -11.902  0.6975E-01  0.6201E+02
    -11.787  0.6731E+00  0.6209E+02
    -11.671  0.4837E+01  0.6265E+02
    -11.556  0.1137E+02  0.6396E+02
    -11.440  0.1150E+02  0.6529E+02
    -11.324  0.5829E+01  0.6596E+02
    -11.209  0.4715E+01  0.6651E+02
    -11.093  0.1288E+02  0.6800E+02
    -10.978  0.1283E+02  0.6949E+02
    -10.862  0.4401E+01  0.6999E+02
    -10.747  0.4169E+01  0.7048E+02
    -10.631  0.1415E+02  0.7212E+02
    -10.515  0.2330E+02  0.7482E+02
    -10.400  0.2655E+02  0.7789E+02
    -10.284  0.3560E+02  0.8200E+02
    -10.169  0.4619E+02  0.8735E+02
    -10.053  0.3415E+02  0.9130E+02
     -9.937  0.2022E+02  0.9364E+02
     -9.822  0.1704E+02  0.9562E+02
     -9.706  0.3163E+02  0.9928E+02
     -9.591  0.1954E+02  0.1015E+03
     -9.475  0.4681E+01  0.1021E+03
     -9.359  0.7001E+01  0.1029E+03
     -9.244  0.1310E+02  0.1044E+03
     -9.128  0.2007E+02  0.1067E+03
     -9.013  0.3264E+02  0.1105E+03
     -8.897  0.2538E+02  0.1135E+03
     -8.781  0.1278E+02  0.1149E+03
     -8.666  0.8203E+01  0.1159E+03
     -8.550  0.6161E+01  0.1166E+03
     -8.435  0.1875E+02  0.1188E+03
     -8.319  0.2565E+02  0.1217E+03
     -8.203  0.2186E+02  0.1243E+03
     -8.088  0.1248E+02  0.1257E+03
     -7.972  0.8720E+01  0.1267E+03
     -7.857  0.1685E+02  0.1287E+03
     -7.741  0.1745E+02  0.1307E+03
     -7.625  0.1312E+02  0.1322E+03
     -7.510  0.1957E+02  0.1345E+03
     -7.394  0.2986E+02  0.1379E+03
     -7.279  0.2541E+02  0.1409E+03
     -7.163  0.2136E+02  0.1433E+03
     -7.047  0.2026E+02  0.1457E+03
     -6.932  0.2477E+02  0.1486E+03
     -6.816  0.2610E+02  0.1516E+03
     -6.701  0.1946E+02  0.1538E+03
     -6.585  0.1527E+02  0.1556E+03
     -6.470  0.1664E+02  0.1575E+03
     -6.354  0.2031E+02  0.1599E+03
     -6.238  0.1783E+02  0.1619E+03
     -6.123  0.1779E+02  0.1640E+03
     -6.007  0.2112E+02  0.1664E+03
     -5.892  0.2164E+02  0.1690E+03
     -5.776  0.1822E+02  0.1711E+03
     -5.660  0.1838E+02  0.1732E+03
     -5.545  0.2294E+02  0.1758E+03
     -5.429  0.2914E+02  0.1792E+03
     -5.314  0.2491E+02  0.1821E+03
     -5.198  0.1986E+02  0.1844E+03
     -5.082  0.2353E+02  0.1871E+03
     -4.967  0.2329E+02  0.1898E+03
     -4.851  0.2730E+02  0.1930E+03
     -4.736  0.3552E+02  0.1971E+03
     -4.620  0.3587E+02  0.2012E+03
     -4.504  0.4674E+02  0.2066E+03
     -4.389  0.4919E+02  0.2123E+03
     -4.273  0.4350E+02  0.2174E+03
     -4.158  0.3377E+02  0.2213E+03
     -4.042  0.3465E+02  0.2253E+03
     -3.926  0.2158E+02  0.2278E+03
     -3.811  0.1811E+02  0.2299E+03
     -3.695  0.2918E+02  0.2333E+03
     -3.580  0.2881E+02  0.2366E+03
     -3.464  0.2691E+02  0.2397E+03
     -3.348  0.2347E+02  0.2424E+03
     -3.233  0.1245E+02  0.2439E+03
     -3.117  0.8924E+01  0.2449E+03
     -3.002  0.8223E+01  0.2459E+03
     -2.886  0.5735E+01  0.2465E+03
     -2.771  0.9121E+01  0.2476E+03
     -2.655  0.3110E+01  0.2480E+03
     -2.539  0.3864E+00  0.2480E+03
     -2.424  0.0000E+00  0.2480E+03
     -2.308  0.0000E+00  0.2480E+03
     -2.193  0.0000E+00  0.2480E+03
     -2.077  0.0000E+00  0.2480E+03
     -1.961  0.0000E+00  0.2480E+03
     -1.846  0.0000E+00  0.2480E+03
     -1.730  0.0000E+00  0.2480E+03
     -1.615  0.0000E+00  0.2480E+03
     -1.499  0.0000E+00  0.2480E+03
     -1.383  0.0000E+00  0.2480E+03
     -1.268  0.0000E+00  0.2480E+03
     -1.152  0.0000E+00  0.2480E+03
     -1.037  0.0000E+00  0.2480E+03
     -0.921  0.0000E+00  0.2480E+03
     -0.805  0.0000E+00  0.2480E+03
     -0.690  0.0000E+00  0.2480E+03
     -0.574  0.0000E+00  0.2480E+03
     -0.459  0.0000E+00  0.2480E+03
     -0.343  0.0000E+00  0.2480E+03
     -0.227  0.0000E+00  0.2480E+03
     -0.112  0.0000E+00  0.2480E+03
      0.004  0.0000E+00  0.2480E+03
      0.119  0.0000E+00  0.2480E+03
      0.235  0.6883E-06  0.2480E+03
      0.351  0.1011E-03  0.2480E+03
      0.466  0.1110E-02  0.2480E+03
      0.582  0.1113E-01  0.2480E+03
      0.697  0.9962E-01  0.2480E+03
      0.813  0.5314E+00  0.2481E+03
      0.929  0.1291E+01  0.2482E+03
      1.044  0.2070E+01  0.2485E+03
      1.160  0.2884E+01  0.2488E+03
      1.275  0.3342E+01  0.2492E+03
      1.391  0.3160E+01  0.2495E+03
      1.506  0.2910E+01  0.2499E+03
      1.622  0.3267E+01  0.2503E+03
      1.738  0.4588E+01  0.2508E+03
      1.853  0.5410E+01  0.2514E+03
      1.969  0.4643E+01  0.2520E+03
      2.084  0.5230E+01  0.2526E+03
      2.200  0.6066E+01  0.2533E+03
      2.316  0.6278E+01  0.2540E+03
      2.431  0.6665E+01  0.2548E+03
      2.547  0.6165E+01  0.2555E+03
      2.662  0.5995E+01  0.2562E+03
      2.778  0.6410E+01  0.2569E+03
      2.894  0.7049E+01  0.2577E+03
      3.009  0.7530E+01  0.2586E+03
      3.125  0.8284E+01  0.2596E+03
      3.240  0.9553E+01  0.2607E+03
      3.356  0.9321E+01  0.2617E+03
      3.472  0.9176E+01  0.2628E+03
      3.587  0.9758E+01  0.2639E+03
      3.703  0.1076E+02  0.2652E+03
      3.818  0.1265E+02  0.2666E+03
      3.934  0.1218E+02  0.2681E+03
      4.050  0.1202E+02  0.2694E+03
      4.165  0.1225E+02  0.2709E+03
      4.281  0.1364E+02  0.2724E+03
      4.396  0.1422E+02  0.2741E+03
      4.512  0.1431E+02  0.2757E+03
      4.628  0.1441E+02  0.2774E+03
      4.743  0.1471E+02  0.2791E+03
      4.859  0.1540E+02  0.2809E+03
      4.974  0.1641E+02  0.2828E+03
      5.090  0.1796E+02  0.2849E+03
      5.206  0.1929E+02  0.2871E+03
      5.321  0.1959E+02  0.2894E+03
      5.437  0.1992E+02  0.2917E+03
      5.552  0.1993E+02  0.2940E+03
      5.668  0.2057E+02  0.2964E+03
      5.783  0.2154E+02  0.2989E+03
      5.899  0.2346E+02  0.3016E+03
      6.015  0.2512E+02  0.3045E+03
      6.130  0.2537E+02  0.3074E+03
      6.246  0.2580E+02  0.3104E+03
      6.361  0.2644E+02  0.3135E+03
      6.477  0.2743E+02  0.3166E+03
      6.593  0.2785E+02  0.3199E+03
      6.708  0.2684E+02  0.3230E+03
      6.824  0.2525E+02  0.3259E+03
      6.939  0.2395E+02  0.3287E+03
      7.055  0.2296E+02  0.3313E+03
      7.171  0.2158E+02  0.3338E+03
      7.286  0.1981E+02  0.3361E+03
      7.402  0.1849E+02  0.3383E+03
      7.517  0.1681E+02  0.3402E+03
      7.633  0.1404E+02  0.3418E+03
      7.749  0.1071E+02  0.3431E+03
      7.864  0.5889E+01  0.3437E+03
      7.980  0.1786E+01  0.3440E+03
      8.095  0.3117E+00  0.3440E+03
      8.211  0.3018E-01  0.3440E+03
      8.327  0.1303E-02  0.3440E+03
      8.442  0.0000E+00  0.3440E+03
      8.558  0.0000E+00  0.3440E+03
      8.673  0.0000E+00  0.3440E+03
      8.789  0.0000E+00  0.3440E+03
      8.905  0.0000E+00  0.3440E+03
      9.020  0.0000E+00  0.3440E+03
      9.136  0.0000E+00  0.3440E+03
      9.251  0.0000E+00  0.3440E+03
      9.367  0.0000E+00  0.3440E+03
      9.483  0.0000E+00  0.3440E+03
      9.598  0.0000E+00  0.3440E+03
