       N       E                     dE             d eps       ncg     rms          rms(c)
RMM:   1     0.332532786158E+04    0.33253E+04   -0.74388E+04 86688   0.878E+02
RMM:   2     0.105374136384E+04   -0.22716E+04   -0.24394E+04 86688   0.253E+02
RMM:   3     0.890812000310E+02   -0.96466E+03   -0.10271E+04 86688   0.187E+02
RMM:   4    -0.343821290233E+03   -0.43290E+03   -0.36827E+03 86688   0.130E+02
RMM:   5    -0.451784725038E+03   -0.10796E+03   -0.98244E+02 86688   0.686E+01
RMM:   6    -0.479469198464E+03   -0.27684E+02   -0.25298E+02 86688   0.354E+01
RMM:   7    -0.486823999561E+03   -0.73548E+01   -0.70486E+01 86688   0.180E+01
RMM:   8    -0.489031010567E+03   -0.22070E+01   -0.20821E+01 86688   0.962E+00
RMM:   9    -0.489899852690E+03   -0.86884E+00   -0.85344E+00221694   0.511E+00
RMM:  10    -0.490020501326E+03   -0.12065E+00   -0.11388E+00235401   0.148E+00
RMM:  11    -0.490022779599E+03   -0.22783E-02   -0.38760E-02221796   0.316E-01
RMM:  12    -0.490023425444E+03   -0.64584E-03   -0.63380E-03222874   0.820E-02    0.396E+01
RMM:  13    -0.448750556214E+03    0.41273E+02   -0.14594E+02210415   0.243E+01    0.152E+01
RMM:  14    -0.447521242429E+03    0.12293E+01   -0.55220E+00218441   0.419E+00    0.957E+00
RMM:  15    -0.447016619259E+03    0.50462E+00   -0.16440E+00214528   0.356E+00    0.135E+00
RMM:  16    -0.446972569148E+03    0.44050E-01   -0.28839E-01221751   0.962E-01    0.520E-01
RMM:  17    -0.446982832313E+03   -0.10263E-01   -0.43232E-02208027   0.402E-01    0.327E-01
RMM:  18    -0.446980109154E+03    0.27232E-02   -0.93049E-03216635   0.217E-01    0.823E-02
RMM:  19    -0.446979393843E+03    0.71531E-03   -0.17695E-03218126   0.733E-02    0.342E-02
RMM:  20    -0.446979218512E+03    0.17533E-03   -0.47734E-04219137   0.359E-02    0.178E-02
RMM:  21    -0.446979189278E+03    0.29234E-04   -0.90979E-05221155   0.158E-02    0.102E-02
RMM:  22    -0.446979180918E+03    0.83599E-05   -0.26341E-05213643   0.940E-03    0.340E-03
RMM:  23    -0.446979180423E+03    0.49490E-06   -0.31459E-06172112   0.333E-03
   1 F= -.45004600E+03 E0= -.45004600E+03  d E =-.598932E-10
