 vasp.5.4.4.18Apr17-6-g9f103f2a35 (build Dec 06 2019 17:20:26) complex          
  
 executed on             LinuxIFC date 2025.07.03  17:38:53
 running on   40 total cores
 distrk:  each k-point on   40 cores,    1 groups
 distr:  one band on NCORES_PER_BAND=  20 cores,    2 groups


--------------------------------------------------------------------------------------------------------


 INCAR:
 POTCAR:    PAW_PBE O 08Apr2002                   
 POTCAR:    PAW_PBE H 15Jun2001                   

 ----------------------------------------------------------------------------- 
|                                                                             |
|           W    W    AA    RRRRR   N    N  II  N    N   GGGG   !!!           |
|           W    W   A  A   R    R  NN   N  II  NN   N  G    G  !!!           |
|           W    W  A    A  R    R  N N  N  II  N N  N  G       !!!           |
|           W WW W  AAAAAA  RRRRR   N  N N  II  N  N N  G  GGG   !            |
|           WW  WW  A    A  R   R   N   NN  II  N   NN  G    G                |
|           W    W  A    A  R    R  N    N  II  N    N   GGGG   !!!           |
|                                                                             |
|      For optimal performance we recommend to set                            |
|        NCORE= 4 - approx SQRT( number of cores)                             |
|      NCORE specifies how many cores store one orbital (NPAR=cpu/NCORE).     |
|      This setting can  greatly improve the performance of VASP for DFT.     |
|      The default,   NCORE=1            might be grossly inefficient         |
|      on modern multi-core architectures or massively parallel machines.     |
|      Do your own testing !!!!                                               |
|      Unfortunately you need to use the default for GW and RPA calculations. |
|      (for HF NCORE is supported but not extensively tested yet)             |
|                                                                             |
 ----------------------------------------------------------------------------- 

 POTCAR:    PAW_PBE O 08Apr2002                   
  local pseudopotential read in
  partial core-charges read in
  partial kinetic energy density read in
  kinetic energy density of atom read in
  atomic valenz-charges read in
  non local Contribution for L=           0  read in
    real space projection operators read in
  non local Contribution for L=           0  read in
    real space projection operators read in
  non local Contribution for L=           1  read in
    real space projection operators read in
  non local Contribution for L=           1  read in
    real space projection operators read in
    PAW grid and wavefunctions read in
 
   number of l-projection  operators is LMAX  =           4
   number of lm-projection operators is LMMAX =           8
 
 POTCAR:    PAW_PBE H 15Jun2001                   
  local pseudopotential read in
  atomic valenz-charges read in
  non local Contribution for L=           0  read in
    real space projection operators read in
  non local Contribution for L=           0  read in
    real space projection operators read in
  non local Contribution for L=           1  read in
    real space projection operators read in
    PAW grid and wavefunctions read in
 
   number of l-projection  operators is LMAX  =           3
   number of lm-projection operators is LMMAX =           5
 
 Optimization of the real space projectors (new method)

 maximal supplied QI-value         = 24.76
 optimisation between [QCUT,QGAM] = [ 10.15, 20.30] = [ 28.85,115.39] Ry 
 Optimized for a Real-space Cutoff    1.38 Angstroem

   l    n(q)    QCUT    max X(q) W(low)/X(q) W(high)/X(q)  e(spline) 
   0      8    10.150    20.381    0.22E-03    0.32E-03    0.29E-06
   0      8    10.150    15.268    0.23E-03    0.35E-03    0.30E-06
   1      8    10.150     5.964    0.46E-03    0.53E-03    0.21E-06
   1      8    10.150     5.382    0.38E-03    0.45E-03    0.19E-06
 Optimization of the real space projectors (new method)

 maximal supplied QI-value         = 34.20
 optimisation between [QCUT,QGAM] = [  9.92, 20.18] = [ 27.55,114.04] Ry 
 Optimized for a Real-space Cutoff    1.26 Angstroem

   l    n(q)    QCUT    max X(q) W(low)/X(q) W(high)/X(q)  e(spline) 
   0      8     9.919    19.460    0.50E-03    0.23E-03    0.29E-06
   0      8     9.919    12.209    0.48E-03    0.23E-03    0.28E-06
   1      7     9.919     4.655    0.17E-03    0.75E-03    0.30E-06
  PAW_PBE O 08Apr2002                   :
 energy of atom  1       EATOM= -432.3788
 kinetic energy error for atom=    0.1156 (will be added to EATOM!!)
  PAW_PBE H 15Jun2001                   :
 energy of atom  2       EATOM=  -12.4884
 kinetic energy error for atom=    0.0098 (will be added to EATOM!!)
 
 
 POSCAR: # 4                                     
  positions in cartesian coordinates
  No initial velocities read in
 exchange correlation table for  LEXCH =        8
   RHO(1)=    0.500       N(1)  =     2000
   RHO(2)=  100.500       N(2)  =     4000
 


--------------------------------------------------------------------------------------------------------


 ion  position               nearest neighbor table
   1  0.580  0.385  0.130-  32 0.96  33 1.10
   2  0.127  0.811  0.608-  34 0.98  35 1.04
   3  0.086  0.563  0.752-  37 0.96  36 1.02  88 1.41
   4  0.070  0.383  0.407-  38 1.03  39 1.05
   5  0.070  0.764  0.167-  40 0.92  41 0.93
   6  0.749  0.019  0.699-  43 0.96  42 1.02
   7  0.720  0.393  0.757-  44 0.95  45 1.07
   8  0.575  0.191  0.791-  47 0.90  46 0.99
   9  0.014  0.214  0.184-  48 0.91  49 1.08
  10  0.280  0.858  0.978-  51 1.02  50 1.11
  11  0.840  0.393  0.022-  52 0.98  53 1.02
  12  0.272  0.213  0.706-  54 0.92  55 0.97
  13  0.963  0.331  0.671-  56 0.95  57 1.03
  14  0.727  0.816  0.871-  58 0.99  59 1.05
  15  0.677  0.044  0.434-  60 0.99  61 1.12
  16  0.346  0.610  0.850-  63 1.07  62 1.12
  17  0.232  0.137  0.951-  65 0.92  64 1.07
  18  0.466  0.141  0.092-  66 0.96  67 0.98
  19  0.844  0.949  0.237-  69 1.12  68 1.13
  20  0.342  0.363  0.440-  70 0.92  71 1.07
  21  0.413  0.119  0.379-  73 1.04  72 1.04
  22  0.004  0.046  0.631-  75 0.97  74 1.02
  23  0.145  0.036  0.373-  76 1.11  77 1.16
  24  0.374  0.834  0.500-  79 1.02  78 1.04
  25  0.354  0.544  0.113-  80 0.95  81 1.07
  26  0.466  0.735  0.262-  82 0.94  83 0.96
  27  0.555  0.652  0.712-  85 1.01  84 1.02
  28  0.637  0.357  0.399-  87 0.92  86 1.02
  29  0.935  0.654  0.952-  89 1.07  88 1.21
  30  0.602  0.911  0.098-  91 0.91  90 1.07
  31  0.972  0.665  0.399-  93 0.97  92 1.01
  32  0.534  0.470  0.122-   1 0.96
  33  0.678  0.407  0.082-   1 1.10
  34  0.068  0.797  0.529-   2 0.98
  35  0.113  0.725  0.669-   2 1.04
  36  0.049  0.466  0.749-   3 1.02
  37  0.170  0.574  0.801-   3 0.96
  38  0.172  0.407  0.407-   4 1.03
  39  0.029  0.353  0.501-   4 1.05
  40  0.040  0.850  0.189-   5 0.92
  41  0.049  0.721  0.249-   5 0.93
  42  0.684  0.015  0.619-   6 1.02
  43  0.720  0.939  0.748-   6 0.96
  44  0.677  0.461  0.704-   7 0.95
  45  0.650  0.324  0.806-   7 1.07
  46  0.514  0.167  0.867-   8 0.99
  47  0.626  0.115  0.785-   8 0.90
  48  0.938  0.257  0.150-   9 0.91
  49  0.046  0.258  0.279-   9 1.08
  50  0.249  0.967  0.969-  10 1.11
  51  0.231  0.814  0.058-  10 1.02
  52  0.804  0.400  0.929-  11 0.98
  53  0.861  0.494  0.023-  11 1.02
  54  0.181  0.196  0.691-  12 0.92
  55  0.295  0.274  0.632-  12 0.97
  56  0.986  0.238  0.656-  13 0.95
  57  0.862  0.310  0.688-  13 1.03
  58  0.685  0.845  0.959-  14 0.99
  59  0.793  0.745  0.916-  14 1.05
  60  0.691  0.142  0.414-  15 0.99
  61  0.564  0.050  0.416-  15 1.12
  62  0.358  0.570  0.956-  16 1.12
  63  0.304  0.703  0.888-  16 1.07
  64  0.236  0.193  0.857-  17 1.07
  65  0.166  0.164  0.011-  17 0.92
  66  0.375  0.134  0.058-  18 0.96
  67  0.476  0.237  0.116-  18 0.98
  68  0.904  0.033  0.185-  19 1.13
  69  0.757  0.982  0.304-  19 1.12
  70  0.409  0.422  0.468-  20 0.92
  71  0.390  0.267  0.421-  20 1.07
  72  0.310  0.098  0.364-  21 1.04
  73  0.429  0.105  0.275-  21 1.04
  74  0.903  0.022  0.643-  22 1.02
  75  0.062  0.965  0.630-  22 0.97
  76  0.068  0.036  0.291-  23 1.11
  77  0.075  0.049  0.467-  23 1.16
  78  0.292  0.798  0.557-  24 1.04
  79  0.445  0.815  0.573-  24 1.02
  80  0.394  0.618  0.158-  25 0.95
  81  0.292  0.473  0.168-  25 1.07
  82  0.431  0.755  0.349-  26 0.94
  83  0.487  0.807  0.199-  26 0.96
  84  0.598  0.691  0.798-  27 1.02
  85  0.463  0.640  0.756-  27 1.01
  86  0.618  0.377  0.299-  28 1.02
  87  0.670  0.444  0.397-  28 0.92
  88  0.007  0.619  0.859-  29 1.21   3 1.41
  89  0.990  0.708  0.028-  29 1.07
  90  0.557  0.010  0.089-  30 1.07
  91  0.690  0.918  0.125-  30 0.91
  92  0.870  0.653  0.408-  31 1.01
  93  0.005  0.572  0.407-  31 0.97
 
  LATTYP: Found a simple cubic cell.
 ALAT       =     9.8149000000
  
  Lattice vectors:
  
 A1 = (   9.8149000000,   0.0000000000,   0.0000000000)
 A2 = (   0.0000000000,   9.8149000000,   0.0000000000)
 A3 = (   0.0000000000,   0.0000000000,   9.8149000000)


Analysis of symmetry for initial positions (statically):
=====================================================================
 Subroutine PRICEL returns:
 Original cell was already a primitive cell.
 

 Routine SETGRP: Setting up the symmetry group for a 
 simple cubic supercell.


 Subroutine GETGRP returns: Found  1 space group operations
 (whereof  1 operations were pure point group operations)
 out of a pool of 48 trial point group operations.


The static configuration has the point symmetry C_1 .


Analysis of symmetry for dynamics (positions and initial velocities):
=====================================================================
 Subroutine PRICEL returns:
 Original cell was already a primitive cell.
 

 Routine SETGRP: Setting up the symmetry group for a 
 simple cubic supercell.


 Subroutine GETGRP returns: Found  1 space group operations
 (whereof  1 operations were pure point group operations)
 out of a pool of 48 trial point group operations.


The dynamic configuration has the point symmetry C_1 .


 Subroutine INISYM returns: Found  1 space group operations
 (whereof  1 operations are pure point group operations),
 and found     1 'primitive' translations

 
 
 KPOINTS: automatic mesh                          

Automatic generation of k-mesh.
Space group operators:
 irot       det(A)        alpha          n_x          n_y          n_z        tau_x        tau_y        tau_z
    1     1.000000     0.000000     1.000000     0.000000     0.000000     0.000000     0.000000     0.000000
 
 Subroutine IBZKPT returns following result:
 ===========================================
 
 Found    504 irreducible k-points:
 
 Following reciprocal coordinates:
            Coordinates               Weight
  0.000000  0.000000  0.000000      1.000000
  0.100000  0.000000  0.000000      2.000000
  0.200000  0.000000  0.000000      2.000000
  0.300000  0.000000  0.000000      2.000000
  0.400000  0.000000  0.000000      2.000000
  0.500000  0.000000  0.000000      1.000000
  0.000000  0.100000  0.000000      2.000000
  0.100000  0.100000  0.000000      2.000000
  0.200000  0.100000  0.000000      2.000000
  0.300000  0.100000  0.000000      2.000000
  0.400000  0.100000  0.000000      2.000000
  0.500000  0.100000  0.000000      2.000000
 -0.400000  0.100000  0.000000      2.000000
 -0.300000  0.100000  0.000000      2.000000
 -0.200000  0.100000  0.000000      2.000000
 -0.100000  0.100000  0.000000      2.000000
  0.000000  0.200000  0.000000      2.000000
  0.100000  0.200000  0.000000      2.000000
  0.200000  0.200000  0.000000      2.000000
  0.300000  0.200000  0.000000      2.000000
  0.400000  0.200000  0.000000      2.000000
  0.500000  0.200000  0.000000      2.000000
 -0.400000  0.200000  0.000000      2.000000
 -0.300000  0.200000  0.000000      2.000000
 -0.200000  0.200000  0.000000      2.000000
 -0.100000  0.200000  0.000000      2.000000
  0.000000  0.300000  0.000000      2.000000
  0.100000  0.300000  0.000000      2.000000
  0.200000  0.300000  0.000000      2.000000
  0.300000  0.300000  0.000000      2.000000
  0.400000  0.300000  0.000000      2.000000
  0.500000  0.300000  0.000000      2.000000
 -0.400000  0.300000  0.000000      2.000000
 -0.300000  0.300000  0.000000      2.000000
 -0.200000  0.300000  0.000000      2.000000
 -0.100000  0.300000  0.000000      2.000000
  0.000000  0.400000  0.000000      2.000000
  0.100000  0.400000  0.000000      2.000000
  0.200000  0.400000  0.000000      2.000000
  0.300000  0.400000  0.000000      2.000000
  0.400000  0.400000  0.000000      2.000000
  0.500000  0.400000  0.000000      2.000000
 -0.400000  0.400000  0.000000      2.000000
 -0.300000  0.400000  0.000000      2.000000
 -0.200000  0.400000  0.000000      2.000000
 -0.100000  0.400000  0.000000      2.000000
  0.000000  0.500000  0.000000      1.000000
  0.100000  0.500000  0.000000      2.000000
  0.200000  0.500000  0.000000      2.000000
  0.300000  0.500000  0.000000      2.000000
  0.400000  0.500000  0.000000      2.000000
  0.500000  0.500000  0.000000      1.000000
  0.000000  0.000000  0.100000      2.000000
  0.100000  0.000000  0.100000      2.000000
  0.200000  0.000000  0.100000      2.000000
  0.300000  0.000000  0.100000      2.000000
  0.400000  0.000000  0.100000      2.000000
  0.500000  0.000000  0.100000      2.000000
 -0.400000  0.000000  0.100000      2.000000
 -0.300000  0.000000  0.100000      2.000000
 -0.200000  0.000000  0.100000      2.000000
 -0.100000  0.000000  0.100000      2.000000
  0.000000  0.100000  0.100000      2.000000
  0.100000  0.100000  0.100000      2.000000
  0.200000  0.100000  0.100000      2.000000
  0.300000  0.100000  0.100000      2.000000
  0.400000  0.100000  0.100000      2.000000
  0.500000  0.100000  0.100000      2.000000
 -0.400000  0.100000  0.100000      2.000000
 -0.300000  0.100000  0.100000      2.000000
 -0.200000  0.100000  0.100000      2.000000
 -0.100000  0.100000  0.100000      2.000000
  0.000000  0.200000  0.100000      2.000000
  0.100000  0.200000  0.100000      2.000000
  0.200000  0.200000  0.100000      2.000000
  0.300000  0.200000  0.100000      2.000000
  0.400000  0.200000  0.100000      2.000000
  0.500000  0.200000  0.100000      2.000000
 -0.400000  0.200000  0.100000      2.000000
 -0.300000  0.200000  0.100000      2.000000
 -0.200000  0.200000  0.100000      2.000000
 -0.100000  0.200000  0.100000      2.000000
  0.000000  0.300000  0.100000      2.000000
  0.100000  0.300000  0.100000      2.000000
  0.200000  0.300000  0.100000      2.000000
  0.300000  0.300000  0.100000      2.000000
  0.400000  0.300000  0.100000      2.000000
  0.500000  0.300000  0.100000      2.000000
 -0.400000  0.300000  0.100000      2.000000
 -0.300000  0.300000  0.100000      2.000000
 -0.200000  0.300000  0.100000      2.000000
 -0.100000  0.300000  0.100000      2.000000
  0.000000  0.400000  0.100000      2.000000
  0.100000  0.400000  0.100000      2.000000
  0.200000  0.400000  0.100000      2.000000
  0.300000  0.400000  0.100000      2.000000
  0.400000  0.400000  0.100000      2.000000
  0.500000  0.400000  0.100000      2.000000
 -0.400000  0.400000  0.100000      2.000000
 -0.300000  0.400000  0.100000      2.000000
 -0.200000  0.400000  0.100000      2.000000
 -0.100000  0.400000  0.100000      2.000000
  0.000000  0.500000  0.100000      2.000000
  0.100000  0.500000  0.100000      2.000000
  0.200000  0.500000  0.100000      2.000000
  0.300000  0.500000  0.100000      2.000000
  0.400000  0.500000  0.100000      2.000000
  0.500000  0.500000  0.100000      2.000000
 -0.400000  0.500000  0.100000      2.000000
 -0.300000  0.500000  0.100000      2.000000
 -0.200000  0.500000  0.100000      2.000000
 -0.100000  0.500000  0.100000      2.000000
  0.000000 -0.400000  0.100000      2.000000
  0.100000 -0.400000  0.100000      2.000000
  0.200000 -0.400000  0.100000      2.000000
  0.300000 -0.400000  0.100000      2.000000
  0.400000 -0.400000  0.100000      2.000000
  0.500000 -0.400000  0.100000      2.000000
 -0.400000 -0.400000  0.100000      2.000000
 -0.300000 -0.400000  0.100000      2.000000
 -0.200000 -0.400000  0.100000      2.000000
 -0.100000 -0.400000  0.100000      2.000000
  0.000000 -0.300000  0.100000      2.000000
  0.100000 -0.300000  0.100000      2.000000
  0.200000 -0.300000  0.100000      2.000000
  0.300000 -0.300000  0.100000      2.000000
  0.400000 -0.300000  0.100000      2.000000
  0.500000 -0.300000  0.100000      2.000000
 -0.400000 -0.300000  0.100000      2.000000
 -0.300000 -0.300000  0.100000      2.000000
 -0.200000 -0.300000  0.100000      2.000000
 -0.100000 -0.300000  0.100000      2.000000
  0.000000 -0.200000  0.100000      2.000000
  0.100000 -0.200000  0.100000      2.000000
  0.200000 -0.200000  0.100000      2.000000
  0.300000 -0.200000  0.100000      2.000000
  0.400000 -0.200000  0.100000      2.000000
  0.500000 -0.200000  0.100000      2.000000
 -0.400000 -0.200000  0.100000      2.000000
 -0.300000 -0.200000  0.100000      2.000000
 -0.200000 -0.200000  0.100000      2.000000
 -0.100000 -0.200000  0.100000      2.000000
  0.000000 -0.100000  0.100000      2.000000
  0.100000 -0.100000  0.100000      2.000000
  0.200000 -0.100000  0.100000      2.000000
  0.300000 -0.100000  0.100000      2.000000
  0.400000 -0.100000  0.100000      2.000000
  0.500000 -0.100000  0.100000      2.000000
 -0.400000 -0.100000  0.100000      2.000000
 -0.300000 -0.100000  0.100000      2.000000
 -0.200000 -0.100000  0.100000      2.000000
 -0.100000 -0.100000  0.100000      2.000000
  0.000000  0.000000  0.200000      2.000000
  0.100000  0.000000  0.200000      2.000000
  0.200000  0.000000  0.200000      2.000000
  0.300000  0.000000  0.200000      2.000000
  0.400000  0.000000  0.200000      2.000000
  0.500000  0.000000  0.200000      2.000000
 -0.400000  0.000000  0.200000      2.000000
 -0.300000  0.000000  0.200000      2.000000
 -0.200000  0.000000  0.200000      2.000000
 -0.100000  0.000000  0.200000      2.000000
  0.000000  0.100000  0.200000      2.000000
  0.100000  0.100000  0.200000      2.000000
  0.200000  0.100000  0.200000      2.000000
  0.300000  0.100000  0.200000      2.000000
  0.400000  0.100000  0.200000      2.000000
  0.500000  0.100000  0.200000      2.000000
 -0.400000  0.100000  0.200000      2.000000
 -0.300000  0.100000  0.200000      2.000000
 -0.200000  0.100000  0.200000      2.000000
 -0.100000  0.100000  0.200000      2.000000
  0.000000  0.200000  0.200000      2.000000
  0.100000  0.200000  0.200000      2.000000
  0.200000  0.200000  0.200000      2.000000
  0.300000  0.200000  0.200000      2.000000
  0.400000  0.200000  0.200000      2.000000
  0.500000  0.200000  0.200000      2.000000
 -0.400000  0.200000  0.200000      2.000000
 -0.300000  0.200000  0.200000      2.000000
 -0.200000  0.200000  0.200000      2.000000
 -0.100000  0.200000  0.200000      2.000000
  0.000000  0.300000  0.200000      2.000000
  0.100000  0.300000  0.200000      2.000000
  0.200000  0.300000  0.200000      2.000000
  0.300000  0.300000  0.200000      2.000000
  0.400000  0.300000  0.200000      2.000000
  0.500000  0.300000  0.200000      2.000000
 -0.400000  0.300000  0.200000      2.000000
 -0.300000  0.300000  0.200000      2.000000
 -0.200000  0.300000  0.200000      2.000000
 -0.100000  0.300000  0.200000      2.000000
  0.000000  0.400000  0.200000      2.000000
  0.100000  0.400000  0.200000      2.000000
  0.200000  0.400000  0.200000      2.000000
  0.300000  0.400000  0.200000      2.000000
  0.400000  0.400000  0.200000      2.000000
  0.500000  0.400000  0.200000      2.000000
 -0.400000  0.400000  0.200000      2.000000
 -0.300000  0.400000  0.200000      2.000000
 -0.200000  0.400000  0.200000      2.000000
 -0.100000  0.400000  0.200000      2.000000
  0.000000  0.500000  0.200000      2.000000
  0.100000  0.500000  0.200000      2.000000
  0.200000  0.500000  0.200000      2.000000
  0.300000  0.500000  0.200000      2.000000
  0.400000  0.500000  0.200000      2.000000
  0.500000  0.500000  0.200000      2.000000
 -0.400000  0.500000  0.200000      2.000000
 -0.300000  0.500000  0.200000      2.000000
 -0.200000  0.500000  0.200000      2.000000
 -0.100000  0.500000  0.200000      2.000000
  0.000000 -0.400000  0.200000      2.000000
  0.100000 -0.400000  0.200000      2.000000
  0.200000 -0.400000  0.200000      2.000000
  0.300000 -0.400000  0.200000      2.000000
  0.400000 -0.400000  0.200000      2.000000
  0.500000 -0.400000  0.200000      2.000000
 -0.400000 -0.400000  0.200000      2.000000
 -0.300000 -0.400000  0.200000      2.000000
 -0.200000 -0.400000  0.200000      2.000000
 -0.100000 -0.400000  0.200000      2.000000
  0.000000 -0.300000  0.200000      2.000000
  0.100000 -0.300000  0.200000      2.000000
  0.200000 -0.300000  0.200000      2.000000
  0.300000 -0.300000  0.200000      2.000000
  0.400000 -0.300000  0.200000      2.000000
  0.500000 -0.300000  0.200000      2.000000
 -0.400000 -0.300000  0.200000      2.000000
 -0.300000 -0.300000  0.200000      2.000000
 -0.200000 -0.300000  0.200000      2.000000
 -0.100000 -0.300000  0.200000      2.000000
  0.000000 -0.200000  0.200000      2.000000
  0.100000 -0.200000  0.200000      2.000000
  0.200000 -0.200000  0.200000      2.000000
  0.300000 -0.200000  0.200000      2.000000
  0.400000 -0.200000  0.200000      2.000000
  0.500000 -0.200000  0.200000      2.000000
 -0.400000 -0.200000  0.200000      2.000000
 -0.300000 -0.200000  0.200000      2.000000
 -0.200000 -0.200000  0.200000      2.000000
 -0.100000 -0.200000  0.200000      2.000000
  0.000000 -0.100000  0.200000      2.000000
  0.100000 -0.100000  0.200000      2.000000
  0.200000 -0.100000  0.200000      2.000000
  0.300000 -0.100000  0.200000      2.000000
  0.400000 -0.100000  0.200000      2.000000
  0.500000 -0.100000  0.200000      2.000000
 -0.400000 -0.100000  0.200000      2.000000
 -0.300000 -0.100000  0.200000      2.000000
 -0.200000 -0.100000  0.200000      2.000000
 -0.100000 -0.100000  0.200000      2.000000
  0.000000  0.000000  0.300000      2.000000
  0.100000  0.000000  0.300000      2.000000
  0.200000  0.000000  0.300000      2.000000
  0.300000  0.000000  0.300000      2.000000
  0.400000  0.000000  0.300000      2.000000
  0.500000  0.000000  0.300000      2.000000
 -0.400000  0.000000  0.300000      2.000000
 -0.300000  0.000000  0.300000      2.000000
 -0.200000  0.000000  0.300000      2.000000
 -0.100000  0.000000  0.300000      2.000000
  0.000000  0.100000  0.300000      2.000000
  0.100000  0.100000  0.300000      2.000000
  0.200000  0.100000  0.300000      2.000000
  0.300000  0.100000  0.300000      2.000000
  0.400000  0.100000  0.300000      2.000000
  0.500000  0.100000  0.300000      2.000000
 -0.400000  0.100000  0.300000      2.000000
 -0.300000  0.100000  0.300000      2.000000
 -0.200000  0.100000  0.300000      2.000000
 -0.100000  0.100000  0.300000      2.000000
  0.000000  0.200000  0.300000      2.000000
  0.100000  0.200000  0.300000      2.000000
  0.200000  0.200000  0.300000      2.000000
  0.300000  0.200000  0.300000      2.000000
  0.400000  0.200000  0.300000      2.000000
  0.500000  0.200000  0.300000      2.000000
 -0.400000  0.200000  0.300000      2.000000
 -0.300000  0.200000  0.300000      2.000000
 -0.200000  0.200000  0.300000      2.000000
 -0.100000  0.200000  0.300000      2.000000
  0.000000  0.300000  0.300000      2.000000
  0.100000  0.300000  0.300000      2.000000
  0.200000  0.300000  0.300000      2.000000
  0.300000  0.300000  0.300000      2.000000
  0.400000  0.300000  0.300000      2.000000
  0.500000  0.300000  0.300000      2.000000
 -0.400000  0.300000  0.300000      2.000000
 -0.300000  0.300000  0.300000      2.000000
 -0.200000  0.300000  0.300000      2.000000
 -0.100000  0.300000  0.300000      2.000000
  0.000000  0.400000  0.300000      2.000000
  0.100000  0.400000  0.300000      2.000000
  0.200000  0.400000  0.300000      2.000000
  0.300000  0.400000  0.300000      2.000000
  0.400000  0.400000  0.300000      2.000000
  0.500000  0.400000  0.300000      2.000000
 -0.400000  0.400000  0.300000      2.000000
 -0.300000  0.400000  0.300000      2.000000
 -0.200000  0.400000  0.300000      2.000000
 -0.100000  0.400000  0.300000      2.000000
  0.000000  0.500000  0.300000      2.000000
  0.100000  0.500000  0.300000      2.000000
  0.200000  0.500000  0.300000      2.000000
  0.300000  0.500000  0.300000      2.000000
  0.400000  0.500000  0.300000      2.000000
  0.500000  0.500000  0.300000      2.000000
 -0.400000  0.500000  0.300000      2.000000
 -0.300000  0.500000  0.300000      2.000000
 -0.200000  0.500000  0.300000      2.000000
 -0.100000  0.500000  0.300000      2.000000
  0.000000 -0.400000  0.300000      2.000000
  0.100000 -0.400000  0.300000      2.000000
  0.200000 -0.400000  0.300000      2.000000
  0.300000 -0.400000  0.300000      2.000000
  0.400000 -0.400000  0.300000      2.000000
  0.500000 -0.400000  0.300000      2.000000
 -0.400000 -0.400000  0.300000      2.000000
 -0.300000 -0.400000  0.300000      2.000000
 -0.200000 -0.400000  0.300000      2.000000
 -0.100000 -0.400000  0.300000      2.000000
  0.000000 -0.300000  0.300000      2.000000
  0.100000 -0.300000  0.300000      2.000000
  0.200000 -0.300000  0.300000      2.000000
  0.300000 -0.300000  0.300000      2.000000
  0.400000 -0.300000  0.300000      2.000000
  0.500000 -0.300000  0.300000      2.000000
 -0.400000 -0.300000  0.300000      2.000000
 -0.300000 -0.300000  0.300000      2.000000
 -0.200000 -0.300000  0.300000      2.000000
 -0.100000 -0.300000  0.300000      2.000000
  0.000000 -0.200000  0.300000      2.000000
  0.100000 -0.200000  0.300000      2.000000
  0.200000 -0.200000  0.300000      2.000000
  0.300000 -0.200000  0.300000      2.000000
  0.400000 -0.200000  0.300000      2.000000
  0.500000 -0.200000  0.300000      2.000000
 -0.400000 -0.200000  0.300000      2.000000
 -0.300000 -0.200000  0.300000      2.000000
 -0.200000 -0.200000  0.300000      2.000000
 -0.100000 -0.200000  0.300000      2.000000
  0.000000 -0.100000  0.300000      2.000000
  0.100000 -0.100000  0.300000      2.000000
  0.200000 -0.100000  0.300000      2.000000
  0.300000 -0.100000  0.300000      2.000000
  0.400000 -0.100000  0.300000      2.000000
  0.500000 -0.100000  0.300000      2.000000
 -0.400000 -0.100000  0.300000      2.000000
 -0.300000 -0.100000  0.300000      2.000000
 -0.200000 -0.100000  0.300000      2.000000
 -0.100000 -0.100000  0.300000      2.000000
  0.000000  0.000000  0.400000      2.000000
  0.100000  0.000000  0.400000      2.000000
  0.200000  0.000000  0.400000      2.000000
  0.300000  0.000000  0.400000      2.000000
  0.400000  0.000000  0.400000      2.000000
  0.500000  0.000000  0.400000      2.000000
 -0.400000  0.000000  0.400000      2.000000
 -0.300000  0.000000  0.400000      2.000000
 -0.200000  0.000000  0.400000      2.000000
 -0.100000  0.000000  0.400000      2.000000
  0.000000  0.100000  0.400000      2.000000
  0.100000  0.100000  0.400000      2.000000
  0.200000  0.100000  0.400000      2.000000
  0.300000  0.100000  0.400000      2.000000
  0.400000  0.100000  0.400000      2.000000
  0.500000  0.100000  0.400000      2.000000
 -0.400000  0.100000  0.400000      2.000000
 -0.300000  0.100000  0.400000      2.000000
 -0.200000  0.100000  0.400000      2.000000
 -0.100000  0.100000  0.400000      2.000000
  0.000000  0.200000  0.400000      2.000000
  0.100000  0.200000  0.400000      2.000000
  0.200000  0.200000  0.400000      2.000000
  0.300000  0.200000  0.400000      2.000000
  0.400000  0.200000  0.400000      2.000000
  0.500000  0.200000  0.400000      2.000000
 -0.400000  0.200000  0.400000      2.000000
 -0.300000  0.200000  0.400000      2.000000
 -0.200000  0.200000  0.400000      2.000000
 -0.100000  0.200000  0.400000      2.000000
  0.000000  0.300000  0.400000      2.000000
  0.100000  0.300000  0.400000      2.000000
  0.200000  0.300000  0.400000      2.000000
  0.300000  0.300000  0.400000      2.000000
  0.400000  0.300000  0.400000      2.000000
  0.500000  0.300000  0.400000      2.000000
 -0.400000  0.300000  0.400000      2.000000
 -0.300000  0.300000  0.400000      2.000000
 -0.200000  0.300000  0.400000      2.000000
 -0.100000  0.300000  0.400000      2.000000
  0.000000  0.400000  0.400000      2.000000
  0.100000  0.400000  0.400000      2.000000
  0.200000  0.400000  0.400000      2.000000
  0.300000  0.400000  0.400000      2.000000
  0.400000  0.400000  0.400000      2.000000
  0.500000  0.400000  0.400000      2.000000
 -0.400000  0.400000  0.400000      2.000000
 -0.300000  0.400000  0.400000      2.000000
 -0.200000  0.400000  0.400000      2.000000
 -0.100000  0.400000  0.400000      2.000000
  0.000000  0.500000  0.400000      2.000000
  0.100000  0.500000  0.400000      2.000000
  0.200000  0.500000  0.400000      2.000000
  0.300000  0.500000  0.400000      2.000000
  0.400000  0.500000  0.400000      2.000000
  0.500000  0.500000  0.400000      2.000000
 -0.400000  0.500000  0.400000      2.000000
 -0.300000  0.500000  0.400000      2.000000
 -0.200000  0.500000  0.400000      2.000000
 -0.100000  0.500000  0.400000      2.000000
  0.000000 -0.400000  0.400000      2.000000
  0.100000 -0.400000  0.400000      2.000000
  0.200000 -0.400000  0.400000      2.000000
  0.300000 -0.400000  0.400000      2.000000
  0.400000 -0.400000  0.400000      2.000000
  0.500000 -0.400000  0.400000      2.000000
 -0.400000 -0.400000  0.400000      2.000000
 -0.300000 -0.400000  0.400000      2.000000
 -0.200000 -0.400000  0.400000      2.000000
 -0.100000 -0.400000  0.400000      2.000000
  0.000000 -0.300000  0.400000      2.000000
  0.100000 -0.300000  0.400000      2.000000
  0.200000 -0.300000  0.400000      2.000000
  0.300000 -0.300000  0.400000      2.000000
  0.400000 -0.300000  0.400000      2.000000
  0.500000 -0.300000  0.400000      2.000000
 -0.400000 -0.300000  0.400000      2.000000
 -0.300000 -0.300000  0.400000      2.000000
 -0.200000 -0.300000  0.400000      2.000000
 -0.100000 -0.300000  0.400000      2.000000
  0.000000 -0.200000  0.400000      2.000000
  0.100000 -0.200000  0.400000      2.000000
  0.200000 -0.200000  0.400000      2.000000
  0.300000 -0.200000  0.400000      2.000000
  0.400000 -0.200000  0.400000      2.000000
  0.500000 -0.200000  0.400000      2.000000
 -0.400000 -0.200000  0.400000      2.000000
 -0.300000 -0.200000  0.400000      2.000000
 -0.200000 -0.200000  0.400000      2.000000
 -0.100000 -0.200000  0.400000      2.000000
  0.000000 -0.100000  0.400000      2.000000
  0.100000 -0.100000  0.400000      2.000000
  0.200000 -0.100000  0.400000      2.000000
  0.300000 -0.100000  0.400000      2.000000
  0.400000 -0.100000  0.400000      2.000000
  0.500000 -0.100000  0.400000      2.000000
 -0.400000 -0.100000  0.400000      2.000000
 -0.300000 -0.100000  0.400000      2.000000
 -0.200000 -0.100000  0.400000      2.000000
 -0.100000 -0.100000  0.400000      2.000000
  0.000000  0.000000  0.500000      1.000000
  0.100000  0.000000  0.500000      2.000000
  0.200000  0.000000  0.500000      2.000000
  0.300000  0.000000  0.500000      2.000000
  0.400000  0.000000  0.500000      2.000000
  0.500000  0.000000  0.500000      1.000000
  0.000000  0.100000  0.500000      2.000000
  0.100000  0.100000  0.500000      2.000000
  0.200000  0.100000  0.500000      2.000000
  0.300000  0.100000  0.500000      2.000000
  0.400000  0.100000  0.500000      2.000000
  0.500000  0.100000  0.500000      2.000000
 -0.400000  0.100000  0.500000      2.000000
 -0.300000  0.100000  0.500000      2.000000
 -0.200000  0.100000  0.500000      2.000000
 -0.100000  0.100000  0.500000      2.000000
  0.000000  0.200000  0.500000      2.000000
  0.100000  0.200000  0.500000      2.000000
  0.200000  0.200000  0.500000      2.000000
  0.300000  0.200000  0.500000      2.000000
  0.400000  0.200000  0.500000      2.000000
  0.500000  0.200000  0.500000      2.000000
 -0.400000  0.200000  0.500000      2.000000
 -0.300000  0.200000  0.500000      2.000000
 -0.200000  0.200000  0.500000      2.000000
 -0.100000  0.200000  0.500000      2.000000
  0.000000  0.300000  0.500000      2.000000
  0.100000  0.300000  0.500000      2.000000
  0.200000  0.300000  0.500000      2.000000
  0.300000  0.300000  0.500000      2.000000
  0.400000  0.300000  0.500000      2.000000
  0.500000  0.300000  0.500000      2.000000
 -0.400000  0.300000  0.500000      2.000000
 -0.300000  0.300000  0.500000      2.000000
 -0.200000  0.300000  0.500000      2.000000
 -0.100000  0.300000  0.500000      2.000000
  0.000000  0.400000  0.500000      2.000000
  0.100000  0.400000  0.500000      2.000000
  0.200000  0.400000  0.500000      2.000000
  0.300000  0.400000  0.500000      2.000000
  0.400000  0.400000  0.500000      2.000000
  0.500000  0.400000  0.500000      2.000000
 -0.400000  0.400000  0.500000      2.000000
 -0.300000  0.400000  0.500000      2.000000
 -0.200000  0.400000  0.500000      2.000000
 -0.100000  0.400000  0.500000      2.000000
  0.000000  0.500000  0.500000      1.000000
  0.100000  0.500000  0.500000      2.000000
  0.200000  0.500000  0.500000      2.000000
  0.300000  0.500000  0.500000      2.000000
  0.400000  0.500000  0.500000      2.000000
  0.500000  0.500000  0.500000      1.000000
 
 Following cartesian coordinates:
            Coordinates               Weight
  0.000000  0.000000  0.000000      1.000000
  0.010189  0.000000  0.000000      2.000000
  0.020377  0.000000  0.000000      2.000000
  0.030566  0.000000  0.000000      2.000000
  0.040754  0.000000  0.000000      2.000000
  0.050943  0.000000  0.000000      1.000000
  0.000000  0.010189  0.000000      2.000000
  0.010189  0.010189  0.000000      2.000000
  0.020377  0.010189  0.000000      2.000000
  0.030566  0.010189  0.000000      2.000000
  0.040754  0.010189  0.000000      2.000000
  0.050943  0.010189  0.000000      2.000000
 -0.040754  0.010189  0.000000      2.000000
 -0.030566  0.010189  0.000000      2.000000
 -0.020377  0.010189  0.000000      2.000000
 -0.010189  0.010189  0.000000      2.000000
  0.000000  0.020377  0.000000      2.000000
  0.010189  0.020377  0.000000      2.000000
  0.020377  0.020377  0.000000      2.000000
  0.030566  0.020377  0.000000      2.000000
  0.040754  0.020377  0.000000      2.000000
  0.050943  0.020377  0.000000      2.000000
 -0.040754  0.020377  0.000000      2.000000
 -0.030566  0.020377  0.000000      2.000000
 -0.020377  0.020377  0.000000      2.000000
 -0.010189  0.020377  0.000000      2.000000
  0.000000  0.030566  0.000000      2.000000
  0.010189  0.030566  0.000000      2.000000
  0.020377  0.030566  0.000000      2.000000
  0.030566  0.030566  0.000000      2.000000
  0.040754  0.030566  0.000000      2.000000
  0.050943  0.030566  0.000000      2.000000
 -0.040754  0.030566  0.000000      2.000000
 -0.030566  0.030566  0.000000      2.000000
 -0.020377  0.030566  0.000000      2.000000
 -0.010189  0.030566  0.000000      2.000000
  0.000000  0.040754  0.000000      2.000000
  0.010189  0.040754  0.000000      2.000000
  0.020377  0.040754  0.000000      2.000000
  0.030566  0.040754  0.000000      2.000000
  0.040754  0.040754  0.000000      2.000000
  0.050943  0.040754  0.000000      2.000000
 -0.040754  0.040754  0.000000      2.000000
 -0.030566  0.040754  0.000000      2.000000
 -0.020377  0.040754  0.000000      2.000000
 -0.010189  0.040754  0.000000      2.000000
  0.000000  0.050943  0.000000      1.000000
  0.010189  0.050943  0.000000      2.000000
  0.020377  0.050943  0.000000      2.000000
  0.030566  0.050943  0.000000      2.000000
  0.040754  0.050943  0.000000      2.000000
  0.050943  0.050943  0.000000      1.000000
  0.000000  0.000000  0.010189      2.000000
  0.010189  0.000000  0.010189      2.000000
  0.020377  0.000000  0.010189      2.000000
  0.030566  0.000000  0.010189      2.000000
  0.040754  0.000000  0.010189      2.000000
  0.050943  0.000000  0.010189      2.000000
 -0.040754  0.000000  0.010189      2.000000
 -0.030566  0.000000  0.010189      2.000000
 -0.020377  0.000000  0.010189      2.000000
 -0.010189  0.000000  0.010189      2.000000
  0.000000  0.010189  0.010189      2.000000
  0.010189  0.010189  0.010189      2.000000
  0.020377  0.010189  0.010189      2.000000
  0.030566  0.010189  0.010189      2.000000
  0.040754  0.010189  0.010189      2.000000
  0.050943  0.010189  0.010189      2.000000
 -0.040754  0.010189  0.010189      2.000000
 -0.030566  0.010189  0.010189      2.000000
 -0.020377  0.010189  0.010189      2.000000
 -0.010189  0.010189  0.010189      2.000000
  0.000000  0.020377  0.010189      2.000000
  0.010189  0.020377  0.010189      2.000000
  0.020377  0.020377  0.010189      2.000000
  0.030566  0.020377  0.010189      2.000000
  0.040754  0.020377  0.010189      2.000000
  0.050943  0.020377  0.010189      2.000000
 -0.040754  0.020377  0.010189      2.000000
 -0.030566  0.020377  0.010189      2.000000
 -0.020377  0.020377  0.010189      2.000000
 -0.010189  0.020377  0.010189      2.000000
  0.000000  0.030566  0.010189      2.000000
  0.010189  0.030566  0.010189      2.000000
  0.020377  0.030566  0.010189      2.000000
  0.030566  0.030566  0.010189      2.000000
  0.040754  0.030566  0.010189      2.000000
  0.050943  0.030566  0.010189      2.000000
 -0.040754  0.030566  0.010189      2.000000
 -0.030566  0.030566  0.010189      2.000000
 -0.020377  0.030566  0.010189      2.000000
 -0.010189  0.030566  0.010189      2.000000
  0.000000  0.040754  0.010189      2.000000
  0.010189  0.040754  0.010189      2.000000
  0.020377  0.040754  0.010189      2.000000
  0.030566  0.040754  0.010189      2.000000
  0.040754  0.040754  0.010189      2.000000
  0.050943  0.040754  0.010189      2.000000
 -0.040754  0.040754  0.010189      2.000000
 -0.030566  0.040754  0.010189      2.000000
 -0.020377  0.040754  0.010189      2.000000
 -0.010189  0.040754  0.010189      2.000000
  0.000000  0.050943  0.010189      2.000000
  0.010189  0.050943  0.010189      2.000000
  0.020377  0.050943  0.010189      2.000000
  0.030566  0.050943  0.010189      2.000000
  0.040754  0.050943  0.010189      2.000000
  0.050943  0.050943  0.010189      2.000000
 -0.040754  0.050943  0.010189      2.000000
 -0.030566  0.050943  0.010189      2.000000
 -0.020377  0.050943  0.010189      2.000000
 -0.010189  0.050943  0.010189      2.000000
  0.000000 -0.040754  0.010189      2.000000
  0.010189 -0.040754  0.010189      2.000000
  0.020377 -0.040754  0.010189      2.000000
  0.030566 -0.040754  0.010189      2.000000
  0.040754 -0.040754  0.010189      2.000000
  0.050943 -0.040754  0.010189      2.000000
 -0.040754 -0.040754  0.010189      2.000000
 -0.030566 -0.040754  0.010189      2.000000
 -0.020377 -0.040754  0.010189      2.000000
 -0.010189 -0.040754  0.010189      2.000000
  0.000000 -0.030566  0.010189      2.000000
  0.010189 -0.030566  0.010189      2.000000
  0.020377 -0.030566  0.010189      2.000000
  0.030566 -0.030566  0.010189      2.000000
  0.040754 -0.030566  0.010189      2.000000
  0.050943 -0.030566  0.010189      2.000000
 -0.040754 -0.030566  0.010189      2.000000
 -0.030566 -0.030566  0.010189      2.000000
 -0.020377 -0.030566  0.010189      2.000000
 -0.010189 -0.030566  0.010189      2.000000
  0.000000 -0.020377  0.010189      2.000000
  0.010189 -0.020377  0.010189      2.000000
  0.020377 -0.020377  0.010189      2.000000
  0.030566 -0.020377  0.010189      2.000000
  0.040754 -0.020377  0.010189      2.000000
  0.050943 -0.020377  0.010189      2.000000
 -0.040754 -0.020377  0.010189      2.000000
 -0.030566 -0.020377  0.010189      2.000000
 -0.020377 -0.020377  0.010189      2.000000
 -0.010189 -0.020377  0.010189      2.000000
  0.000000 -0.010189  0.010189      2.000000
  0.010189 -0.010189  0.010189      2.000000
  0.020377 -0.010189  0.010189      2.000000
  0.030566 -0.010189  0.010189      2.000000
  0.040754 -0.010189  0.010189      2.000000
  0.050943 -0.010189  0.010189      2.000000
 -0.040754 -0.010189  0.010189      2.000000
 -0.030566 -0.010189  0.010189      2.000000
 -0.020377 -0.010189  0.010189      2.000000
 -0.010189 -0.010189  0.010189      2.000000
  0.000000  0.000000  0.020377      2.000000
  0.010189  0.000000  0.020377      2.000000
  0.020377  0.000000  0.020377      2.000000
  0.030566  0.000000  0.020377      2.000000
  0.040754  0.000000  0.020377      2.000000
  0.050943  0.000000  0.020377      2.000000
 -0.040754  0.000000  0.020377      2.000000
 -0.030566  0.000000  0.020377      2.000000
 -0.020377  0.000000  0.020377      2.000000
 -0.010189  0.000000  0.020377      2.000000
  0.000000  0.010189  0.020377      2.000000
  0.010189  0.010189  0.020377      2.000000
  0.020377  0.010189  0.020377      2.000000
  0.030566  0.010189  0.020377      2.000000
  0.040754  0.010189  0.020377      2.000000
  0.050943  0.010189  0.020377      2.000000
 -0.040754  0.010189  0.020377      2.000000
 -0.030566  0.010189  0.020377      2.000000
 -0.020377  0.010189  0.020377      2.000000
 -0.010189  0.010189  0.020377      2.000000
  0.000000  0.020377  0.020377      2.000000
  0.010189  0.020377  0.020377      2.000000
  0.020377  0.020377  0.020377      2.000000
  0.030566  0.020377  0.020377      2.000000
  0.040754  0.020377  0.020377      2.000000
  0.050943  0.020377  0.020377      2.000000
 -0.040754  0.020377  0.020377      2.000000
 -0.030566  0.020377  0.020377      2.000000
 -0.020377  0.020377  0.020377      2.000000
 -0.010189  0.020377  0.020377      2.000000
  0.000000  0.030566  0.020377      2.000000
  0.010189  0.030566  0.020377      2.000000
  0.020377  0.030566  0.020377      2.000000
  0.030566  0.030566  0.020377      2.000000
  0.040754  0.030566  0.020377      2.000000
  0.050943  0.030566  0.020377      2.000000
 -0.040754  0.030566  0.020377      2.000000
 -0.030566  0.030566  0.020377      2.000000
 -0.020377  0.030566  0.020377      2.000000
 -0.010189  0.030566  0.020377      2.000000
  0.000000  0.040754  0.020377      2.000000
  0.010189  0.040754  0.020377      2.000000
  0.020377  0.040754  0.020377      2.000000
  0.030566  0.040754  0.020377      2.000000
  0.040754  0.040754  0.020377      2.000000
  0.050943  0.040754  0.020377      2.000000
 -0.040754  0.040754  0.020377      2.000000
 -0.030566  0.040754  0.020377      2.000000
 -0.020377  0.040754  0.020377      2.000000
 -0.010189  0.040754  0.020377      2.000000
  0.000000  0.050943  0.020377      2.000000
  0.010189  0.050943  0.020377      2.000000
  0.020377  0.050943  0.020377      2.000000
  0.030566  0.050943  0.020377      2.000000
  0.040754  0.050943  0.020377      2.000000
  0.050943  0.050943  0.020377      2.000000
 -0.040754  0.050943  0.020377      2.000000
 -0.030566  0.050943  0.020377      2.000000
 -0.020377  0.050943  0.020377      2.000000
 -0.010189  0.050943  0.020377      2.000000
  0.000000 -0.040754  0.020377      2.000000
  0.010189 -0.040754  0.020377      2.000000
  0.020377 -0.040754  0.020377      2.000000
  0.030566 -0.040754  0.020377      2.000000
  0.040754 -0.040754  0.020377      2.000000
  0.050943 -0.040754  0.020377      2.000000
 -0.040754 -0.040754  0.020377      2.000000
 -0.030566 -0.040754  0.020377      2.000000
 -0.020377 -0.040754  0.020377      2.000000
 -0.010189 -0.040754  0.020377      2.000000
  0.000000 -0.030566  0.020377      2.000000
  0.010189 -0.030566  0.020377      2.000000
  0.020377 -0.030566  0.020377      2.000000
  0.030566 -0.030566  0.020377      2.000000
  0.040754 -0.030566  0.020377      2.000000
  0.050943 -0.030566  0.020377      2.000000
 -0.040754 -0.030566  0.020377      2.000000
 -0.030566 -0.030566  0.020377      2.000000
 -0.020377 -0.030566  0.020377      2.000000
 -0.010189 -0.030566  0.020377      2.000000
  0.000000 -0.020377  0.020377      2.000000
  0.010189 -0.020377  0.020377      2.000000
  0.020377 -0.020377  0.020377      2.000000
  0.030566 -0.020377  0.020377      2.000000
  0.040754 -0.020377  0.020377      2.000000
  0.050943 -0.020377  0.020377      2.000000
 -0.040754 -0.020377  0.020377      2.000000
 -0.030566 -0.020377  0.020377      2.000000
 -0.020377 -0.020377  0.020377      2.000000
 -0.010189 -0.020377  0.020377      2.000000
  0.000000 -0.010189  0.020377      2.000000
  0.010189 -0.010189  0.020377      2.000000
  0.020377 -0.010189  0.020377      2.000000
  0.030566 -0.010189  0.020377      2.000000
  0.040754 -0.010189  0.020377      2.000000
  0.050943 -0.010189  0.020377      2.000000
 -0.040754 -0.010189  0.020377      2.000000
 -0.030566 -0.010189  0.020377      2.000000
 -0.020377 -0.010189  0.020377      2.000000
 -0.010189 -0.010189  0.020377      2.000000
  0.000000  0.000000  0.030566      2.000000
  0.010189  0.000000  0.030566      2.000000
  0.020377  0.000000  0.030566      2.000000
  0.030566  0.000000  0.030566      2.000000
  0.040754  0.000000  0.030566      2.000000
  0.050943  0.000000  0.030566      2.000000
 -0.040754  0.000000  0.030566      2.000000
 -0.030566  0.000000  0.030566      2.000000
 -0.020377  0.000000  0.030566      2.000000
 -0.010189  0.000000  0.030566      2.000000
  0.000000  0.010189  0.030566      2.000000
  0.010189  0.010189  0.030566      2.000000
  0.020377  0.010189  0.030566      2.000000
  0.030566  0.010189  0.030566      2.000000
  0.040754  0.010189  0.030566      2.000000
  0.050943  0.010189  0.030566      2.000000
 -0.040754  0.010189  0.030566      2.000000
 -0.030566  0.010189  0.030566      2.000000
 -0.020377  0.010189  0.030566      2.000000
 -0.010189  0.010189  0.030566      2.000000
  0.000000  0.020377  0.030566      2.000000
  0.010189  0.020377  0.030566      2.000000
  0.020377  0.020377  0.030566      2.000000
  0.030566  0.020377  0.030566      2.000000
  0.040754  0.020377  0.030566      2.000000
  0.050943  0.020377  0.030566      2.000000
 -0.040754  0.020377  0.030566      2.000000
 -0.030566  0.020377  0.030566      2.000000
 -0.020377  0.020377  0.030566      2.000000
 -0.010189  0.020377  0.030566      2.000000
  0.000000  0.030566  0.030566      2.000000
  0.010189  0.030566  0.030566      2.000000
  0.020377  0.030566  0.030566      2.000000
  0.030566  0.030566  0.030566      2.000000
  0.040754  0.030566  0.030566      2.000000
  0.050943  0.030566  0.030566      2.000000
 -0.040754  0.030566  0.030566      2.000000
 -0.030566  0.030566  0.030566      2.000000
 -0.020377  0.030566  0.030566      2.000000
 -0.010189  0.030566  0.030566      2.000000
  0.000000  0.040754  0.030566      2.000000
  0.010189  0.040754  0.030566      2.000000
  0.020377  0.040754  0.030566      2.000000
  0.030566  0.040754  0.030566      2.000000
  0.040754  0.040754  0.030566      2.000000
  0.050943  0.040754  0.030566      2.000000
 -0.040754  0.040754  0.030566      2.000000
 -0.030566  0.040754  0.030566      2.000000
 -0.020377  0.040754  0.030566      2.000000
 -0.010189  0.040754  0.030566      2.000000
  0.000000  0.050943  0.030566      2.000000
  0.010189  0.050943  0.030566      2.000000
  0.020377  0.050943  0.030566      2.000000
  0.030566  0.050943  0.030566      2.000000
  0.040754  0.050943  0.030566      2.000000
  0.050943  0.050943  0.030566      2.000000
 -0.040754  0.050943  0.030566      2.000000
 -0.030566  0.050943  0.030566      2.000000
 -0.020377  0.050943  0.030566      2.000000
 -0.010189  0.050943  0.030566      2.000000
  0.000000 -0.040754  0.030566      2.000000
  0.010189 -0.040754  0.030566      2.000000
  0.020377 -0.040754  0.030566      2.000000
  0.030566 -0.040754  0.030566      2.000000
  0.040754 -0.040754  0.030566      2.000000
  0.050943 -0.040754  0.030566      2.000000
 -0.040754 -0.040754  0.030566      2.000000
 -0.030566 -0.040754  0.030566      2.000000
 -0.020377 -0.040754  0.030566      2.000000
 -0.010189 -0.040754  0.030566      2.000000
  0.000000 -0.030566  0.030566      2.000000
  0.010189 -0.030566  0.030566      2.000000
  0.020377 -0.030566  0.030566      2.000000
  0.030566 -0.030566  0.030566      2.000000
  0.040754 -0.030566  0.030566      2.000000
  0.050943 -0.030566  0.030566      2.000000
 -0.040754 -0.030566  0.030566      2.000000
 -0.030566 -0.030566  0.030566      2.000000
 -0.020377 -0.030566  0.030566      2.000000
 -0.010189 -0.030566  0.030566      2.000000
  0.000000 -0.020377  0.030566      2.000000
  0.010189 -0.020377  0.030566      2.000000
  0.020377 -0.020377  0.030566      2.000000
  0.030566 -0.020377  0.030566      2.000000
  0.040754 -0.020377  0.030566      2.000000
  0.050943 -0.020377  0.030566      2.000000
 -0.040754 -0.020377  0.030566      2.000000
 -0.030566 -0.020377  0.030566      2.000000
 -0.020377 -0.020377  0.030566      2.000000
 -0.010189 -0.020377  0.030566      2.000000
  0.000000 -0.010189  0.030566      2.000000
  0.010189 -0.010189  0.030566      2.000000
  0.020377 -0.010189  0.030566      2.000000
  0.030566 -0.010189  0.030566      2.000000
  0.040754 -0.010189  0.030566      2.000000
  0.050943 -0.010189  0.030566      2.000000
 -0.040754 -0.010189  0.030566      2.000000
 -0.030566 -0.010189  0.030566      2.000000
 -0.020377 -0.010189  0.030566      2.000000
 -0.010189 -0.010189  0.030566      2.000000
  0.000000  0.000000  0.040754      2.000000
  0.010189  0.000000  0.040754      2.000000
  0.020377  0.000000  0.040754      2.000000
  0.030566  0.000000  0.040754      2.000000
  0.040754  0.000000  0.040754      2.000000
  0.050943  0.000000  0.040754      2.000000
 -0.040754  0.000000  0.040754      2.000000
 -0.030566  0.000000  0.040754      2.000000
 -0.020377  0.000000  0.040754      2.000000
 -0.010189  0.000000  0.040754      2.000000
  0.000000  0.010189  0.040754      2.000000
  0.010189  0.010189  0.040754      2.000000
  0.020377  0.010189  0.040754      2.000000
  0.030566  0.010189  0.040754      2.000000
  0.040754  0.010189  0.040754      2.000000
  0.050943  0.010189  0.040754      2.000000
 -0.040754  0.010189  0.040754      2.000000
 -0.030566  0.010189  0.040754      2.000000
 -0.020377  0.010189  0.040754      2.000000
 -0.010189  0.010189  0.040754      2.000000
  0.000000  0.020377  0.040754      2.000000
  0.010189  0.020377  0.040754      2.000000
  0.020377  0.020377  0.040754      2.000000
  0.030566  0.020377  0.040754      2.000000
  0.040754  0.020377  0.040754      2.000000
  0.050943  0.020377  0.040754      2.000000
 -0.040754  0.020377  0.040754      2.000000
 -0.030566  0.020377  0.040754      2.000000
 -0.020377  0.020377  0.040754      2.000000
 -0.010189  0.020377  0.040754      2.000000
  0.000000  0.030566  0.040754      2.000000
  0.010189  0.030566  0.040754      2.000000
  0.020377  0.030566  0.040754      2.000000
  0.030566  0.030566  0.040754      2.000000
  0.040754  0.030566  0.040754      2.000000
  0.050943  0.030566  0.040754      2.000000
 -0.040754  0.030566  0.040754      2.000000
 -0.030566  0.030566  0.040754      2.000000
 -0.020377  0.030566  0.040754      2.000000
 -0.010189  0.030566  0.040754      2.000000
  0.000000  0.040754  0.040754      2.000000
  0.010189  0.040754  0.040754      2.000000
  0.020377  0.040754  0.040754      2.000000
  0.030566  0.040754  0.040754      2.000000
  0.040754  0.040754  0.040754      2.000000
  0.050943  0.040754  0.040754      2.000000
 -0.040754  0.040754  0.040754      2.000000
 -0.030566  0.040754  0.040754      2.000000
 -0.020377  0.040754  0.040754      2.000000
 -0.010189  0.040754  0.040754      2.000000
  0.000000  0.050943  0.040754      2.000000
  0.010189  0.050943  0.040754      2.000000
  0.020377  0.050943  0.040754      2.000000
  0.030566  0.050943  0.040754      2.000000
  0.040754  0.050943  0.040754      2.000000
  0.050943  0.050943  0.040754      2.000000
 -0.040754  0.050943  0.040754      2.000000
 -0.030566  0.050943  0.040754      2.000000
 -0.020377  0.050943  0.040754      2.000000
 -0.010189  0.050943  0.040754      2.000000
  0.000000 -0.040754  0.040754      2.000000
  0.010189 -0.040754  0.040754      2.000000
  0.020377 -0.040754  0.040754      2.000000
  0.030566 -0.040754  0.040754      2.000000
  0.040754 -0.040754  0.040754      2.000000
  0.050943 -0.040754  0.040754      2.000000
 -0.040754 -0.040754  0.040754      2.000000
 -0.030566 -0.040754  0.040754      2.000000
 -0.020377 -0.040754  0.040754      2.000000
 -0.010189 -0.040754  0.040754      2.000000
  0.000000 -0.030566  0.040754      2.000000
  0.010189 -0.030566  0.040754      2.000000
  0.020377 -0.030566  0.040754      2.000000
  0.030566 -0.030566  0.040754      2.000000
  0.040754 -0.030566  0.040754      2.000000
  0.050943 -0.030566  0.040754      2.000000
 -0.040754 -0.030566  0.040754      2.000000
 -0.030566 -0.030566  0.040754      2.000000
 -0.020377 -0.030566  0.040754      2.000000
 -0.010189 -0.030566  0.040754      2.000000
  0.000000 -0.020377  0.040754      2.000000
  0.010189 -0.020377  0.040754      2.000000
  0.020377 -0.020377  0.040754      2.000000
  0.030566 -0.020377  0.040754      2.000000
  0.040754 -0.020377  0.040754      2.000000
  0.050943 -0.020377  0.040754      2.000000
 -0.040754 -0.020377  0.040754      2.000000
 -0.030566 -0.020377  0.040754      2.000000
 -0.020377 -0.020377  0.040754      2.000000
 -0.010189 -0.020377  0.040754      2.000000
  0.000000 -0.010189  0.040754      2.000000
  0.010189 -0.010189  0.040754      2.000000
  0.020377 -0.010189  0.040754      2.000000
  0.030566 -0.010189  0.040754      2.000000
  0.040754 -0.010189  0.040754      2.000000
  0.050943 -0.010189  0.040754      2.000000
 -0.040754 -0.010189  0.040754      2.000000
 -0.030566 -0.010189  0.040754      2.000000
 -0.020377 -0.010189  0.040754      2.000000
 -0.010189 -0.010189  0.040754      2.000000
  0.000000  0.000000  0.050943      1.000000
  0.010189  0.000000  0.050943      2.000000
  0.020377  0.000000  0.050943      2.000000
  0.030566  0.000000  0.050943      2.000000
  0.040754  0.000000  0.050943      2.000000
  0.050943  0.000000  0.050943      1.000000
  0.000000  0.010189  0.050943      2.000000
  0.010189  0.010189  0.050943      2.000000
  0.020377  0.010189  0.050943      2.000000
  0.030566  0.010189  0.050943      2.000000
  0.040754  0.010189  0.050943      2.000000
  0.050943  0.010189  0.050943      2.000000
 -0.040754  0.010189  0.050943      2.000000
 -0.030566  0.010189  0.050943      2.000000
 -0.020377  0.010189  0.050943      2.000000
 -0.010189  0.010189  0.050943      2.000000
  0.000000  0.020377  0.050943      2.000000
  0.010189  0.020377  0.050943      2.000000
  0.020377  0.020377  0.050943      2.000000
  0.030566  0.020377  0.050943      2.000000
  0.040754  0.020377  0.050943      2.000000
  0.050943  0.020377  0.050943      2.000000
 -0.040754  0.020377  0.050943      2.000000
 -0.030566  0.020377  0.050943      2.000000
 -0.020377  0.020377  0.050943      2.000000
 -0.010189  0.020377  0.050943      2.000000
  0.000000  0.030566  0.050943      2.000000
  0.010189  0.030566  0.050943      2.000000
  0.020377  0.030566  0.050943      2.000000
  0.030566  0.030566  0.050943      2.000000
  0.040754  0.030566  0.050943      2.000000
  0.050943  0.030566  0.050943      2.000000
 -0.040754  0.030566  0.050943      2.000000
 -0.030566  0.030566  0.050943      2.000000
 -0.020377  0.030566  0.050943      2.000000
 -0.010189  0.030566  0.050943      2.000000
  0.000000  0.040754  0.050943      2.000000
  0.010189  0.040754  0.050943      2.000000
  0.020377  0.040754  0.050943      2.000000
  0.030566  0.040754  0.050943      2.000000
  0.040754  0.040754  0.050943      2.000000
  0.050943  0.040754  0.050943      2.000000
 -0.040754  0.040754  0.050943      2.000000
 -0.030566  0.040754  0.050943      2.000000
 -0.020377  0.040754  0.050943      2.000000
 -0.010189  0.040754  0.050943      2.000000
  0.000000  0.050943  0.050943      1.000000
  0.010189  0.050943  0.050943      2.000000
  0.020377  0.050943  0.050943      2.000000
  0.030566  0.050943  0.050943      2.000000
  0.040754  0.050943  0.050943      2.000000
  0.050943  0.050943  0.050943      1.000000
 


--------------------------------------------------------------------------------------------------------




 Dimension of arrays:
   k-points           NKPTS =    504   k-points in BZ     NKDIM =    504   number of bands    NBANDS=    172
   number of dos      NEDOS =    301   number of ions     NIONS =     93
   non local maximal  LDIM  =      4   non local SUM 2l+1 LMDIM =      8
   total plane-waves  NPLWV = 110592
   max r-space proj   IRMAX =   1339   max aug-charges    IRDMAX=   1717
   dimension x,y,z NGX =    48 NGY =   48 NGZ =   48
   dimension x,y,z NGXF=    96 NGYF=   96 NGZF=   96
   support grid    NGXF=    96 NGYF=   96 NGZF=   96
   ions per type =              31  62
   NGX,Y,Z   is equivalent  to a cutoff of   8.13,  8.13,  8.13 a.u.
   NGXF,Y,Z  is equivalent  to a cutoff of  16.26, 16.26, 16.26 a.u.

 SYSTEM =  ice                                     
 POSCAR =  # 4                                     

 Startparameter for this run:
   NWRITE =      0    write-flag & timer
   PREC   = normal    normal or accurate (medium, high low for compatibility)
   ISTART =      0    job   : 0-new  1-cont  2-samecut
   ICHARG =      1    charge: 1-file 2-atom 10-const
   ISPIN  =      1    spin polarized calculation?
   LNONCOLLINEAR =      F non collinear calculations
   LSORBIT =      F    spin-orbit coupling
   INIWAV =      1    electr: 0-lowe 1-rand  2-diag
   LASPH  =      F    aspherical Exc in radial PAW
   METAGGA=      F    non-selfconsistent MetaGGA calc.

 Electronic Relaxation 1
   ENCUT  =  400.0 eV  29.40 Ry    5.42 a.u.  16.01 16.01 16.01*2*pi/ulx,y,z
   ENINI  =  400.0     initial cutoff
   ENAUG  =  605.4 eV  augmentation charge cutoff
   NELM   =    500;   NELMIN=  4; NELMDL=  0     # of ELM steps 
   EDIFF  = 0.1E-05   stopping-criterion for ELM
   LREAL  =      T    real-space projection
   NLSPLINE    = F    spline interpolate recip. space projectors
   LCOMPAT=      F    compatible to vasp.4.4
   GGA_COMPAT  = T    GGA compatible to vasp.4.4-vasp.4.6
   LMAXPAW     = -100 max onsite density
   LMAXMIX     =    2 max onsite mixed and CHGCAR
   VOSKOWN=      0    Vosko Wilk Nusair interpolation
   ROPT   =   -0.00050  -0.00050
 Ionic relaxation
   EDIFFG = 0.1E-04   stopping-criterion for IOM
   NSW    =      0    number of steps for IOM
   NBLOCK =      1;   KBLOCK =      1    inner block; outer block 
   IBRION =     -1    ionic relax: 0-MD 1-quasi-New 2-CG
   NFREE  =      0    steps in history (QN), initial steepest desc. (CG)
   ISIF   =      2    stress and relaxation
   IWAVPR =     10    prediction:  0-non 1-charg 2-wave 3-comb
   ISYM   =      2    0-nonsym 1-usesym 2-fastsym
   LCORR  =      T    Harris-Foulkes like correction to forces

   POTIM  = 0.5000    time-step for ionic-motion
   TEIN   =    0.0    initial temperature
   TEBEG  =    0.0;   TEEND  =   0.0 temperature during run
   SMASS  =  -3.00    Nose mass-parameter (am)
   estimated Nose-frequenzy (Omega)   =  0.10E-29 period in steps =****** mass=  -0.220E-26a.u.
   SCALEE = 1.0000    scale energy and forces
   NPACO  =    256;   APACO  = 16.0  distance and # of slots for P.C.
   PSTRESS=    0.0 pullay stress

  Mass of Ions in am
   POMASS =  16.00  1.00
  Ionic Valenz
   ZVAL   =   6.00  1.00
  Atomic Wigner-Seitz radii
   RWIGS  =  -1.00 -1.00
  virtual crystal weights 
   VCA    =   1.00  1.00
   NELECT =     248.0000    total number of electrons
   NUPDOWN=      -1.0000    fix difference up-down

 DOS related values:
   EMIN   =  10.00;   EMAX   =-10.00  energy-range for DOS
   EFERMI =   0.00
   ISMEAR =    -1;   SIGMA  =   0.05  broadening in eV -4-tet -1-fermi 0-gaus

 Electronic relaxation 2 (details)
   IALGO  =     48    algorithm
   LDIAG  =      T    sub-space diagonalisation (order eigenvalues)
   LSUBROT=      F    optimize rotation matrix (better conditioning)
   TURBO    =      0    0=normal 1=particle mesh
   IRESTART =      0    0=no restart 2=restart with 2 vectors
   NREBOOT  =      0    no. of reboots
   NMIN     =      0    reboot dimension
   EREF     =   0.00    reference energy to select bands
   IMIX   =      4    mixing-type and parameters
     AMIX     =   0.40;   BMIX     =  1.00
     AMIX_MAG =   1.60;   BMIX_MAG =  1.00
     AMIN     =   0.10
     WC   =   100.;   INIMIX=   1;  MIXPRE=   1;  MAXMIX=  40

 Intra band minimization:
   WEIMIN = 0.0000     energy-eigenvalue tresh-hold
   EBREAK =  0.15E-08  absolut break condition
   DEPER  =   0.30     relativ break condition  

   TIME   =   0.40     timestep for ELM

  volume/ion in A,a.u.               =      10.17        68.61
  Fermi-wavevector in a.u.,A,eV,Ry     =   1.047947  1.980334 14.941835  1.098194
  Thomas-Fermi vector in A             =   2.182849
 
 Write flags
   LWAVE        =      F    write WAVECAR
   LDOWNSAMPLE  =      F    k-point downsampling of WAVECAR
   LCHARG       =      F    write CHGCAR
   LVTOT        =      F    write LOCPOT, total local potential
   LVHAR        =      T    write LOCPOT, Hartree potential only
   LELF         =      F    write electronic localiz. function (ELF)
   LORBIT       =      0    0 simple, 1 ext, 2 COOP (PROOUT), +10 PAW based schemes


 Dipole corrections
   LMONO  =      F    monopole corrections only (constant potential shift)
   LDIPOL =      F    correct potential (dipole corrections)
   IDIPOL =      0    1-x, 2-y, 3-z, 4-all directions 
   EPSILON=  1.0000000 bulk dielectric constant

 Exchange correlation treatment:
   GGA     =    --    GGA type
   LEXCH   =     8    internal setting for exchange type
   VOSKOWN=      0    Vosko Wilk Nusair interpolation
   LHFCALC =     F    Hartree Fock is set to
   LHFONE  =     F    Hartree Fock one center treatment
   AEXX    =    0.0000 exact exchange contribution

 Linear response parameters
   LEPSILON=     F    determine dielectric tensor
   LRPA    =     F    only Hartree local field effects (RPA)
   LNABLA  =     F    use nabla operator in PAW spheres
   LVEL    =     F    velocity operator in full k-point grid
   LINTERFAST=   F  fast interpolation
   KINTER  =     0    interpolate to denser k-point grid
   CSHIFT  =0.1000    complex shift for real part using Kramers Kronig
   OMEGAMAX=  -1.0    maximum frequency
   DEG_THRESHOLD= 0.2000000E-02 threshold for treating states as degnerate
   RTIME   =   -0.100 relaxation time in fs
  (WPLASMAI=    0.000 imaginary part of plasma frequency in eV, 0.658/RTIME)
   DFIELD  = 0.0000000 0.0000000 0.0000000 field for delta impulse in time
 
 Orbital magnetization related:
   ORBITALMAG=     F  switch on orbital magnetization
   LCHIMAG   =     F  perturbation theory with respect to B field
   DQ        =  0.001000  dq finite difference perturbation B field
   LLRAUG    =     F  two centre corrections for induced B field



--------------------------------------------------------------------------------------------------------


 Static calculation
 charge density and potential will be updated during run
 non-spin polarized calculation
 RMM-DIIS sequential band-by-band
 perform sub-space diagonalisation
    before iterative eigenvector-optimisation
 modified Broyden-mixing scheme, WC =      100.0
 initial mixing is a Kerker type mixing with AMIX =  0.4000 and BMIX =      1.0000
 Hartree-type preconditioning will be used
 using additional bands           48
 real space projection scheme for non local part
 use partial core corrections
 calculate Harris-corrections to forces 
   (improved forces if not selfconsistent)
 use gradient corrections 
 use of overlap-Matrix (Vanderbilt PP)
 Fermi-smearing in eV        SIGMA  =   0.05


--------------------------------------------------------------------------------------------------------


  energy-cutoff  :      400.00
  volume of cell :      945.49
      direct lattice vectors                 reciprocal lattice vectors
     9.814900000  0.000000000  0.000000000     0.101885908  0.000000000  0.000000000
     0.000000000  9.814900000  0.000000000     0.000000000  0.101885908  0.000000000
     0.000000000  0.000000000  9.814900000     0.000000000  0.000000000  0.101885908

  length of vectors
     9.814900000  9.814900000  9.814900000     0.101885908  0.101885908  0.101885908


 
 k-points in units of 2pi/SCALE and weight: automatic mesh                          
   0.00000000  0.00000000  0.00000000       0.001
   0.01018859  0.00000000  0.00000000       0.002
   0.02037718  0.00000000  0.00000000       0.002
   0.03056577  0.00000000  0.00000000       0.002
   0.04075436  0.00000000  0.00000000       0.002
   0.05094295  0.00000000  0.00000000       0.001
   0.00000000  0.01018859  0.00000000       0.002
   0.01018859  0.01018859  0.00000000       0.002
   0.02037718  0.01018859  0.00000000       0.002
   0.03056577  0.01018859  0.00000000       0.002
   0.04075436  0.01018859  0.00000000       0.002
   0.05094295  0.01018859  0.00000000       0.002
  -0.04075436  0.01018859  0.00000000       0.002
  -0.03056577  0.01018859  0.00000000       0.002
  -0.02037718  0.01018859  0.00000000       0.002
  -0.01018859  0.01018859  0.00000000       0.002
   0.00000000  0.02037718  0.00000000       0.002
   0.01018859  0.02037718  0.00000000       0.002
   0.02037718  0.02037718  0.00000000       0.002
   0.03056577  0.02037718  0.00000000       0.002
   0.04075436  0.02037718  0.00000000       0.002
   0.05094295  0.02037718  0.00000000       0.002
  -0.04075436  0.02037718  0.00000000       0.002
  -0.03056577  0.02037718  0.00000000       0.002
  -0.02037718  0.02037718  0.00000000       0.002
  -0.01018859  0.02037718  0.00000000       0.002
   0.00000000  0.03056577  0.00000000       0.002
   0.01018859  0.03056577  0.00000000       0.002
   0.02037718  0.03056577  0.00000000       0.002
   0.03056577  0.03056577  0.00000000       0.002
   0.04075436  0.03056577  0.00000000       0.002
   0.05094295  0.03056577  0.00000000       0.002
  -0.04075436  0.03056577  0.00000000       0.002
  -0.03056577  0.03056577  0.00000000       0.002
  -0.02037718  0.03056577  0.00000000       0.002
  -0.01018859  0.03056577  0.00000000       0.002
   0.00000000  0.04075436  0.00000000       0.002
   0.01018859  0.04075436  0.00000000       0.002
   0.02037718  0.04075436  0.00000000       0.002
   0.03056577  0.04075436  0.00000000       0.002
   0.04075436  0.04075436  0.00000000       0.002
   0.05094295  0.04075436  0.00000000       0.002
  -0.04075436  0.04075436  0.00000000       0.002
  -0.03056577  0.04075436  0.00000000       0.002
  -0.02037718  0.04075436  0.00000000       0.002
  -0.01018859  0.04075436  0.00000000       0.002
   0.00000000  0.05094295  0.00000000       0.001
   0.01018859  0.05094295  0.00000000       0.002
   0.02037718  0.05094295  0.00000000       0.002
   0.03056577  0.05094295  0.00000000       0.002
   0.04075436  0.05094295  0.00000000       0.002
   0.05094295  0.05094295  0.00000000       0.001
   0.00000000  0.00000000  0.01018859       0.002
   0.01018859  0.00000000  0.01018859       0.002
   0.02037718  0.00000000  0.01018859       0.002
   0.03056577  0.00000000  0.01018859       0.002
   0.04075436  0.00000000  0.01018859       0.002
   0.05094295  0.00000000  0.01018859       0.002
  -0.04075436  0.00000000  0.01018859       0.002
  -0.03056577  0.00000000  0.01018859       0.002
  -0.02037718  0.00000000  0.01018859       0.002
  -0.01018859  0.00000000  0.01018859       0.002
   0.00000000  0.01018859  0.01018859       0.002
   0.01018859  0.01018859  0.01018859       0.002
   0.02037718  0.01018859  0.01018859       0.002
   0.03056577  0.01018859  0.01018859       0.002
   0.04075436  0.01018859  0.01018859       0.002
   0.05094295  0.01018859  0.01018859       0.002
  -0.04075436  0.01018859  0.01018859       0.002
  -0.03056577  0.01018859  0.01018859       0.002
  -0.02037718  0.01018859  0.01018859       0.002
  -0.01018859  0.01018859  0.01018859       0.002
   0.00000000  0.02037718  0.01018859       0.002
   0.01018859  0.02037718  0.01018859       0.002
   0.02037718  0.02037718  0.01018859       0.002
   0.03056577  0.02037718  0.01018859       0.002
   0.04075436  0.02037718  0.01018859       0.002
   0.05094295  0.02037718  0.01018859       0.002
  -0.04075436  0.02037718  0.01018859       0.002
  -0.03056577  0.02037718  0.01018859       0.002
  -0.02037718  0.02037718  0.01018859       0.002
  -0.01018859  0.02037718  0.01018859       0.002
   0.00000000  0.03056577  0.01018859       0.002
   0.01018859  0.03056577  0.01018859       0.002
   0.02037718  0.03056577  0.01018859       0.002
   0.03056577  0.03056577  0.01018859       0.002
   0.04075436  0.03056577  0.01018859       0.002
   0.05094295  0.03056577  0.01018859       0.002
  -0.04075436  0.03056577  0.01018859       0.002
  -0.03056577  0.03056577  0.01018859       0.002
  -0.02037718  0.03056577  0.01018859       0.002
  -0.01018859  0.03056577  0.01018859       0.002
   0.00000000  0.04075436  0.01018859       0.002
   0.01018859  0.04075436  0.01018859       0.002
   0.02037718  0.04075436  0.01018859       0.002
   0.03056577  0.04075436  0.01018859       0.002
   0.04075436  0.04075436  0.01018859       0.002
   0.05094295  0.04075436  0.01018859       0.002
  -0.04075436  0.04075436  0.01018859       0.002
  -0.03056577  0.04075436  0.01018859       0.002
  -0.02037718  0.04075436  0.01018859       0.002
  -0.01018859  0.04075436  0.01018859       0.002
   0.00000000  0.05094295  0.01018859       0.002
   0.01018859  0.05094295  0.01018859       0.002
   0.02037718  0.05094295  0.01018859       0.002
   0.03056577  0.05094295  0.01018859       0.002
   0.04075436  0.05094295  0.01018859       0.002
   0.05094295  0.05094295  0.01018859       0.002
  -0.04075436  0.05094295  0.01018859       0.002
  -0.03056577  0.05094295  0.01018859       0.002
  -0.02037718  0.05094295  0.01018859       0.002
  -0.01018859  0.05094295  0.01018859       0.002
   0.00000000 -0.04075436  0.01018859       0.002
   0.01018859 -0.04075436  0.01018859       0.002
   0.02037718 -0.04075436  0.01018859       0.002
   0.03056577 -0.04075436  0.01018859       0.002
   0.04075436 -0.04075436  0.01018859       0.002
   0.05094295 -0.04075436  0.01018859       0.002
  -0.04075436 -0.04075436  0.01018859       0.002
  -0.03056577 -0.04075436  0.01018859       0.002
  -0.02037718 -0.04075436  0.01018859       0.002
  -0.01018859 -0.04075436  0.01018859       0.002
   0.00000000 -0.03056577  0.01018859       0.002
   0.01018859 -0.03056577  0.01018859       0.002
   0.02037718 -0.03056577  0.01018859       0.002
   0.03056577 -0.03056577  0.01018859       0.002
   0.04075436 -0.03056577  0.01018859       0.002
   0.05094295 -0.03056577  0.01018859       0.002
  -0.04075436 -0.03056577  0.01018859       0.002
  -0.03056577 -0.03056577  0.01018859       0.002
  -0.02037718 -0.03056577  0.01018859       0.002
  -0.01018859 -0.03056577  0.01018859       0.002
   0.00000000 -0.02037718  0.01018859       0.002
   0.01018859 -0.02037718  0.01018859       0.002
   0.02037718 -0.02037718  0.01018859       0.002
   0.03056577 -0.02037718  0.01018859       0.002
   0.04075436 -0.02037718  0.01018859       0.002
   0.05094295 -0.02037718  0.01018859       0.002
  -0.04075436 -0.02037718  0.01018859       0.002
  -0.03056577 -0.02037718  0.01018859       0.002
  -0.02037718 -0.02037718  0.01018859       0.002
  -0.01018859 -0.02037718  0.01018859       0.002
   0.00000000 -0.01018859  0.01018859       0.002
   0.01018859 -0.01018859  0.01018859       0.002
   0.02037718 -0.01018859  0.01018859       0.002
   0.03056577 -0.01018859  0.01018859       0.002
   0.04075436 -0.01018859  0.01018859       0.002
   0.05094295 -0.01018859  0.01018859       0.002
  -0.04075436 -0.01018859  0.01018859       0.002
  -0.03056577 -0.01018859  0.01018859       0.002
  -0.02037718 -0.01018859  0.01018859       0.002
  -0.01018859 -0.01018859  0.01018859       0.002
   0.00000000  0.00000000  0.02037718       0.002
   0.01018859  0.00000000  0.02037718       0.002
   0.02037718  0.00000000  0.02037718       0.002
   0.03056577  0.00000000  0.02037718       0.002
   0.04075436  0.00000000  0.02037718       0.002
   0.05094295  0.00000000  0.02037718       0.002
  -0.04075436  0.00000000  0.02037718       0.002
  -0.03056577  0.00000000  0.02037718       0.002
  -0.02037718  0.00000000  0.02037718       0.002
  -0.01018859  0.00000000  0.02037718       0.002
   0.00000000  0.01018859  0.02037718       0.002
   0.01018859  0.01018859  0.02037718       0.002
   0.02037718  0.01018859  0.02037718       0.002
   0.03056577  0.01018859  0.02037718       0.002
   0.04075436  0.01018859  0.02037718       0.002
   0.05094295  0.01018859  0.02037718       0.002
  -0.04075436  0.01018859  0.02037718       0.002
  -0.03056577  0.01018859  0.02037718       0.002
  -0.02037718  0.01018859  0.02037718       0.002
  -0.01018859  0.01018859  0.02037718       0.002
   0.00000000  0.02037718  0.02037718       0.002
   0.01018859  0.02037718  0.02037718       0.002
   0.02037718  0.02037718  0.02037718       0.002
   0.03056577  0.02037718  0.02037718       0.002
   0.04075436  0.02037718  0.02037718       0.002
   0.05094295  0.02037718  0.02037718       0.002
  -0.04075436  0.02037718  0.02037718       0.002
  -0.03056577  0.02037718  0.02037718       0.002
  -0.02037718  0.02037718  0.02037718       0.002
  -0.01018859  0.02037718  0.02037718       0.002
   0.00000000  0.03056577  0.02037718       0.002
   0.01018859  0.03056577  0.02037718       0.002
   0.02037718  0.03056577  0.02037718       0.002
   0.03056577  0.03056577  0.02037718       0.002
   0.04075436  0.03056577  0.02037718       0.002
   0.05094295  0.03056577  0.02037718       0.002
  -0.04075436  0.03056577  0.02037718       0.002
  -0.03056577  0.03056577  0.02037718       0.002
  -0.02037718  0.03056577  0.02037718       0.002
  -0.01018859  0.03056577  0.02037718       0.002
   0.00000000  0.04075436  0.02037718       0.002
   0.01018859  0.04075436  0.02037718       0.002
   0.02037718  0.04075436  0.02037718       0.002
   0.03056577  0.04075436  0.02037718       0.002
   0.04075436  0.04075436  0.02037718       0.002
   0.05094295  0.04075436  0.02037718       0.002
  -0.04075436  0.04075436  0.02037718       0.002
  -0.03056577  0.04075436  0.02037718       0.002
  -0.02037718  0.04075436  0.02037718       0.002
  -0.01018859  0.04075436  0.02037718       0.002
   0.00000000  0.05094295  0.02037718       0.002
   0.01018859  0.05094295  0.02037718       0.002
   0.02037718  0.05094295  0.02037718       0.002
   0.03056577  0.05094295  0.02037718       0.002
   0.04075436  0.05094295  0.02037718       0.002
   0.05094295  0.05094295  0.02037718       0.002
  -0.04075436  0.05094295  0.02037718       0.002
  -0.03056577  0.05094295  0.02037718       0.002
  -0.02037718  0.05094295  0.02037718       0.002
  -0.01018859  0.05094295  0.02037718       0.002
   0.00000000 -0.04075436  0.02037718       0.002
   0.01018859 -0.04075436  0.02037718       0.002
   0.02037718 -0.04075436  0.02037718       0.002
   0.03056577 -0.04075436  0.02037718       0.002
   0.04075436 -0.04075436  0.02037718       0.002
   0.05094295 -0.04075436  0.02037718       0.002
  -0.04075436 -0.04075436  0.02037718       0.002
  -0.03056577 -0.04075436  0.02037718       0.002
  -0.02037718 -0.04075436  0.02037718       0.002
  -0.01018859 -0.04075436  0.02037718       0.002
   0.00000000 -0.03056577  0.02037718       0.002
   0.01018859 -0.03056577  0.02037718       0.002
   0.02037718 -0.03056577  0.02037718       0.002
   0.03056577 -0.03056577  0.02037718       0.002
   0.04075436 -0.03056577  0.02037718       0.002
   0.05094295 -0.03056577  0.02037718       0.002
  -0.04075436 -0.03056577  0.02037718       0.002
  -0.03056577 -0.03056577  0.02037718       0.002
  -0.02037718 -0.03056577  0.02037718       0.002
  -0.01018859 -0.03056577  0.02037718       0.002
   0.00000000 -0.02037718  0.02037718       0.002
   0.01018859 -0.02037718  0.02037718       0.002
   0.02037718 -0.02037718  0.02037718       0.002
   0.03056577 -0.02037718  0.02037718       0.002
   0.04075436 -0.02037718  0.02037718       0.002
   0.05094295 -0.02037718  0.02037718       0.002
  -0.04075436 -0.02037718  0.02037718       0.002
  -0.03056577 -0.02037718  0.02037718       0.002
  -0.02037718 -0.02037718  0.02037718       0.002
  -0.01018859 -0.02037718  0.02037718       0.002
   0.00000000 -0.01018859  0.02037718       0.002
   0.01018859 -0.01018859  0.02037718       0.002
   0.02037718 -0.01018859  0.02037718       0.002
   0.03056577 -0.01018859  0.02037718       0.002
   0.04075436 -0.01018859  0.02037718       0.002
   0.05094295 -0.01018859  0.02037718       0.002
  -0.04075436 -0.01018859  0.02037718       0.002
  -0.03056577 -0.01018859  0.02037718       0.002
  -0.02037718 -0.01018859  0.02037718       0.002
  -0.01018859 -0.01018859  0.02037718       0.002
   0.00000000  0.00000000  0.03056577       0.002
   0.01018859  0.00000000  0.03056577       0.002
   0.02037718  0.00000000  0.03056577       0.002
   0.03056577  0.00000000  0.03056577       0.002
   0.04075436  0.00000000  0.03056577       0.002
   0.05094295  0.00000000  0.03056577       0.002
  -0.04075436  0.00000000  0.03056577       0.002
  -0.03056577  0.00000000  0.03056577       0.002
  -0.02037718  0.00000000  0.03056577       0.002
  -0.01018859  0.00000000  0.03056577       0.002
   0.00000000  0.01018859  0.03056577       0.002
   0.01018859  0.01018859  0.03056577       0.002
   0.02037718  0.01018859  0.03056577       0.002
   0.03056577  0.01018859  0.03056577       0.002
   0.04075436  0.01018859  0.03056577       0.002
   0.05094295  0.01018859  0.03056577       0.002
  -0.04075436  0.01018859  0.03056577       0.002
  -0.03056577  0.01018859  0.03056577       0.002
  -0.02037718  0.01018859  0.03056577       0.002
  -0.01018859  0.01018859  0.03056577       0.002
   0.00000000  0.02037718  0.03056577       0.002
   0.01018859  0.02037718  0.03056577       0.002
   0.02037718  0.02037718  0.03056577       0.002
   0.03056577  0.02037718  0.03056577       0.002
   0.04075436  0.02037718  0.03056577       0.002
   0.05094295  0.02037718  0.03056577       0.002
  -0.04075436  0.02037718  0.03056577       0.002
  -0.03056577  0.02037718  0.03056577       0.002
  -0.02037718  0.02037718  0.03056577       0.002
  -0.01018859  0.02037718  0.03056577       0.002
   0.00000000  0.03056577  0.03056577       0.002
   0.01018859  0.03056577  0.03056577       0.002
   0.02037718  0.03056577  0.03056577       0.002
   0.03056577  0.03056577  0.03056577       0.002
   0.04075436  0.03056577  0.03056577       0.002
   0.05094295  0.03056577  0.03056577       0.002
  -0.04075436  0.03056577  0.03056577       0.002
  -0.03056577  0.03056577  0.03056577       0.002
  -0.02037718  0.03056577  0.03056577       0.002
  -0.01018859  0.03056577  0.03056577       0.002
   0.00000000  0.04075436  0.03056577       0.002
   0.01018859  0.04075436  0.03056577       0.002
   0.02037718  0.04075436  0.03056577       0.002
   0.03056577  0.04075436  0.03056577       0.002
   0.04075436  0.04075436  0.03056577       0.002
   0.05094295  0.04075436  0.03056577       0.002
  -0.04075436  0.04075436  0.03056577       0.002
  -0.03056577  0.04075436  0.03056577       0.002
  -0.02037718  0.04075436  0.03056577       0.002
  -0.01018859  0.04075436  0.03056577       0.002
   0.00000000  0.05094295  0.03056577       0.002
   0.01018859  0.05094295  0.03056577       0.002
   0.02037718  0.05094295  0.03056577       0.002
   0.03056577  0.05094295  0.03056577       0.002
   0.04075436  0.05094295  0.03056577       0.002
[...]
   -.342E+02 0.109E+02 0.230E+02   0.618E+02 -.370E+02 -.215E+02   -.271E+02 0.257E+02 -.653E+00   0.935E-03 -.301E-03 0.161E-02
   -.135E+02 0.498E+02 0.131E+02   0.199E+02 -.797E+02 -.143E+02   -.599E+01 0.326E+02 0.297E+00   -.809E-04 0.836E-03 0.173E-03
   0.268E+02 -.101E+03 -.139E+02   -.642E+02 0.977E+02 0.604E+01   0.359E+02 0.645E+00 0.721E+01   0.184E-03 -.879E-03 -.304E-03
   -.284E+02 0.204E+02 -.603E+02   0.477E+02 -.160E+02 0.910E+02   -.205E+02 -.504E+01 -.336E+02   -.189E-03 -.377E-03 0.994E-04
   0.694E+01 -.213E+02 -.475E+02   0.792E+00 0.536E+02 0.482E+02   -.813E+01 -.307E+02 -.153E+01   -.230E-03 0.519E-03 -.180E-02
   -.162E+02 0.267E+02 0.243E+02   0.460E+02 -.324E+02 -.222E+02   -.343E+02 0.597E+01 -.201E+01   0.928E-04 0.914E-04 -.184E-03
   -.477E+02 0.174E+02 0.769E+01   0.466E+02 0.137E+01 -.438E+02   0.141E+01 -.200E+02 0.388E+02   -.509E-03 0.105E-02 -.961E-03
   0.558E+02 0.519E+02 0.321E+01   -.545E+02 -.601E+02 -.329E+02   -.402E+01 0.370E+01 0.286E+02   0.234E-03 0.689E-03 0.854E-03
   -.601E+02 0.787E+02 -.445E+02   0.691E+02 -.112E+03 0.356E+02   -.823E+01 0.304E+02 0.664E+01   -.492E-03 0.120E-02 0.116E-03
   -.608E+02 0.156E+02 0.133E+03   0.752E+02 -.228E+02 -.170E+03   -.139E+02 0.789E+01 0.381E+02   0.896E-04 -.262E-03 0.681E-03
   -.624E+02 -.268E+02 -.822E+02   0.535E+02 -.155E+02 0.111E+03   0.790E+01 0.404E+02 -.302E+02   0.570E-03 -.130E-02 -.104E-03
   0.383E+02 -.303E+00 -.160E+02   -.610E+02 -.781E+01 0.112E+02   0.247E+02 0.822E+01 0.453E+01   -.566E-03 -.114E-03 0.417E-03
   0.317E+01 0.626E+02 0.220E+02   -.326E+02 -.903E+02 -.310E+02   0.240E+02 0.291E+02 0.719E+01   0.847E-03 0.222E-03 0.695E-03
   0.662E+02 -.763E+01 -.120E+02   -.458E+02 0.438E+02 0.793E+01   -.221E+02 -.359E+02 0.443E+01   0.116E-02 -.626E-04 -.109E-02
   0.204E+02 -.705E+02 0.719E+01   -.258E+02 0.789E+02 -.804E+01   0.428E+01 -.764E+01 0.760E+00   0.235E-03 -.120E-03 0.531E-04
   -.417E+02 -.193E+02 0.164E+02   0.445E+02 0.190E+02 -.174E+02   -.431E+01 -.897E+00 0.209E+01   0.169E-03 -.439E-04 0.310E-04
   0.479E+02 0.128E+02 0.559E+02   -.527E+02 -.143E+02 -.627E+02   0.477E+01 0.958E+00 0.660E+01   0.167E-03 0.170E-03 -.102E-03
   0.910E+01 0.420E+02 -.336E+02   -.100E+02 -.458E+02 0.361E+02   0.714E+00 0.524E+01 -.382E+01   0.361E-05 0.265E-04 -.332E-04
   0.163E+02 0.542E+02 -.554E+01   -.185E+02 -.600E+02 0.489E+01   0.270E+01 0.642E+01 0.362E+00   -.188E-03 -.819E-05 0.438E-06
   -.570E+02 0.173E+00 -.338E+02   0.669E+02 0.396E+00 0.389E+02   -.760E+01 -.121E+01 -.433E+01   -.211E-03 0.446E-04 -.194E-04
   -.511E+02 -.317E+02 0.891E+01   0.563E+02 0.321E+02 -.824E+01   -.638E+01 -.152E+01 0.236E+00   -.130E-03 -.153E-03 -.454E-04
   0.290E+02 0.104E+02 -.392E+02   -.305E+02 -.112E+02 0.431E+02   0.263E+01 0.175E+01 -.533E+01   -.656E-04 -.168E-03 -.150E-03
   0.237E+02 -.744E+02 -.115E+02   -.283E+02 0.873E+02 0.144E+02   0.332E+01 -.940E+01 -.238E+01   -.533E-05 0.109E-03 0.949E-04
   0.110E+02 0.421E+02 -.572E+02   -.139E+02 -.484E+02 0.680E+02   0.211E+01 0.439E+01 -.831E+01   0.445E-04 0.112E-03 -.971E-04
   0.470E+02 0.146E+02 0.457E+02   -.502E+02 -.144E+02 -.511E+02   0.440E+01 0.195E+00 0.558E+01   0.798E-05 0.192E-03 -.161E-03
   0.213E+02 0.581E+02 -.250E+02   -.231E+02 -.666E+02 0.306E+02   0.241E+01 0.695E+01 -.434E+01   0.560E-05 0.722E-04 0.482E-04
   0.327E+02 -.609E+02 0.544E+02   -.376E+02 0.683E+02 -.596E+02   0.383E+01 -.641E+01 0.494E+01   0.107E-03 -.170E-03 0.415E-04
   0.320E+02 0.123E+02 -.303E+02   -.343E+02 -.146E+02 0.309E+02   0.320E+01 0.325E+01 -.250E+01   0.199E-03 0.110E-03 -.362E-04
   0.455E+02 0.162E+02 -.486E+02   -.504E+02 -.175E+02 0.544E+02   0.487E+01 0.177E+01 -.603E+01   0.172E-03 -.394E-04 0.814E-04
   -.337E+02 0.642E+02 -.369E+01   0.432E+02 -.769E+02 0.199E+01   -.606E+01 0.888E+01 0.846E+00   0.156E-03 -.471E-04 -.736E-04
   0.661E+02 -.352E+02 0.310E+02   -.774E+02 0.420E+02 -.362E+02   0.836E+01 -.465E+01 0.396E+01   -.129E-03 0.208E-04 0.189E-03
   -.116E+02 -.246E+02 -.357E+02   0.122E+02 0.263E+02 0.385E+02   -.180E+01 -.212E+01 -.478E+01   -.130E-03 -.101E-03 0.130E-03
   0.211E+02 -.363E+02 0.990E+01   -.216E+02 0.378E+02 -.104E+02   0.116E+01 -.453E+01 0.567E+00   -.119E-04 -.192E-03 0.213E-03
   0.283E+02 0.255E+02 -.490E+02   -.312E+02 -.277E+02 0.535E+02   0.322E+01 0.322E+01 -.544E+01   -.947E-04 0.351E-04 0.180E-03
   0.178E+02 -.163E+01 0.548E+02   -.209E+02 0.146E+01 -.635E+02   0.285E+01 -.587E+00 0.758E+01   0.408E-04 0.636E-04 0.714E-04
   -.122E+02 -.601E+02 -.185E+02   0.145E+02 0.667E+02 0.189E+02   -.148E+01 -.683E+01 -.764E-01   -.207E-04 -.334E-04 0.159E-05
   0.725E+02 0.148E+02 0.617E+01   -.854E+02 -.179E+02 -.844E+01   0.974E+01 0.201E+01 0.141E+01   -.113E-03 0.266E-04 -.326E-03
   -.240E+02 -.520E+02 0.436E+02   0.268E+02 0.580E+02 -.505E+02   -.217E+01 -.526E+01 0.635E+01   -.113E-05 -.331E-04 -.317E-03
   -.146E+02 0.625E+02 0.542E+01   0.178E+02 -.730E+02 -.690E+01   -.203E+01 0.858E+01 0.137E+01   -.154E-03 0.958E-04 -.214E-03
   0.566E+02 0.170E+02 -.286E+01   -.628E+02 -.166E+02 0.421E+01   0.649E+01 0.128E+01 -.113E+01   -.375E-04 0.105E-04 -.977E-04
   0.202E+02 -.121E+02 -.479E+02   -.241E+02 0.148E+02 0.539E+02   0.317E+01 -.214E+01 -.648E+01   0.133E-03 -.507E-04 0.359E-04
   -.277E+02 0.359E+02 -.223E+02   0.315E+02 -.391E+02 0.233E+02   -.369E+01 0.396E+01 -.243E+01   0.305E-04 -.376E-04 0.106E-03
   -.229E+02 -.712E+02 0.130E+02   0.245E+02 0.787E+02 -.141E+02   -.114E+01 -.760E+01 0.154E+01   0.464E-04 0.462E-05 -.714E-04
   0.374E+02 0.128E+02 -.165E+01   -.396E+02 -.133E+02 0.168E+01   0.467E+01 -.133E+00 0.679E+00   -.157E-04 0.149E-03 -.999E-04
   -.836E+01 0.274E+02 -.292E+02   0.861E+01 -.287E+02 0.310E+02   -.496E+00 0.164E+01 -.410E+01   0.524E-04 0.102E-03 -.841E-05
   0.222E+02 -.471E+02 -.946E+01   -.233E+02 0.511E+02 0.104E+02   0.218E+01 -.499E+01 -.200E+01   -.341E-04 -.622E-05 0.370E-05
   0.762E+01 -.336E+02 0.269E+02   -.695E+01 0.353E+02 -.296E+02   -.340E+00 -.263E+01 0.452E+01   -.738E-04 0.297E-04 -.823E-04
   0.666E+02 -.275E+02 -.495E+02   -.767E+02 0.317E+02 0.584E+02   0.716E+01 -.277E+01 -.682E+01   -.198E-03 -.168E-04 0.304E-03
   0.650E+02 0.228E+01 0.198E+02   -.745E+02 -.327E+01 -.238E+02   0.804E+01 0.658E+00 0.305E+01   0.138E-03 -.850E-04 0.330E-03
   0.179E+00 -.668E+02 -.126E+02   0.184E+01 0.755E+02 0.146E+02   -.101E+01 -.793E+01 -.198E+01   0.175E-03 -.585E-04 0.251E-03
   -.231E+02 -.368E+02 0.386E+02   0.229E+02 0.378E+02 -.385E+02   -.249E+01 -.319E+01 0.221E+01   -.697E-05 0.100E-03 0.157E-03
   0.286E+02 -.127E+01 -.214E+02   -.293E+02 0.224E+01 0.228E+02   0.338E+01 -.932E+00 -.257E+01   0.222E-04 0.247E-03 -.283E-04
   -.587E+02 -.703E+02 -.327E+02   0.679E+02 0.784E+02 0.364E+02   -.707E+01 -.631E+01 -.297E+01   0.717E-04 -.113E-03 -.402E-04
   -.241E+02 0.243E+02 -.190E+00   0.257E+02 -.275E+02 -.731E+00   -.235E+01 0.457E+01 0.871E+00   0.629E-04 -.275E-03 -.793E-04
   0.532E+02 0.112E+02 0.107E+02   -.589E+02 -.129E+02 -.101E+02   0.611E+01 0.124E+01 0.878E+00   0.561E-04 -.362E-04 0.291E-04
   -.716E+01 0.138E+02 0.556E+02   0.878E+01 -.141E+02 -.605E+02   -.997E+00 0.928E+00 0.623E+01   -.197E-04 -.456E-04 0.314E-03
   0.491E+02 0.211E+02 -.536E+01   -.551E+02 -.225E+02 0.640E+01   0.645E+01 0.138E+01 -.793E+00   -.109E-03 0.135E-03 -.175E-03
   -.350E+02 0.473E+02 -.143E+02   0.401E+02 -.548E+02 0.150E+02   -.490E+01 0.648E+01 0.400E-02   0.501E-04 -.968E-05 -.256E-03
   0.370E+02 0.646E+01 0.451E+02   -.379E+02 -.611E+01 -.460E+02   0.346E+01 0.167E-01 0.373E+01   -.237E-04 0.377E-04 0.966E-04
   0.299E+02 -.674E+01 -.262E+02   -.302E+02 0.695E+01 0.267E+02   0.234E+01 -.441E+00 -.320E+01   0.260E-04 0.887E-04 -.273E-03
   0.297E+02 0.301E+02 -.329E+02   -.342E+02 -.311E+02 0.349E+02   0.498E+01 0.206E+01 -.344E+01   0.344E-04 0.127E-03 -.222E-03
   -.567E+02 0.122E+02 -.502E+02   0.612E+02 -.132E+02 0.539E+02   -.483E+01 0.123E+01 -.494E+01   -.152E-03 0.153E-03 -.188E-03
   -.256E+02 -.459E+02 -.303E+02   0.300E+02 0.550E+02 0.369E+02   -.389E+01 -.701E+01 -.389E+01   -.187E-04 0.346E-04 0.471E-04
   0.497E+02 0.456E+02 -.318E+02   -.509E+02 -.468E+02 0.333E+02   0.343E+01 0.398E+01 -.279E+01   -.125E-03 -.454E-04 0.195E-03
   0.175E+02 0.164E+01 -.662E+02   -.219E+02 0.138E+01 0.769E+02   0.331E+01 -.164E+01 -.855E+01   -.182E-03 0.228E-03 0.125E-03
   -.142E+02 -.407E+02 0.383E+02   0.168E+02 0.481E+02 -.442E+02   -.207E+01 -.611E+01 0.581E+01   0.216E-04 0.276E-03 -.199E-04
   -.272E+02 -.182E+02 -.467E+02   0.305E+02 0.207E+02 0.507E+02   -.294E+01 -.263E+01 -.559E+01   0.156E-03 0.122E-04 0.214E-03
   0.412E+02 0.662E+01 -.336E+01   -.471E+02 -.788E+01 0.576E+01   0.614E+01 0.798E+00 -.282E+01   -.142E-04 -.240E-05 0.277E-04
   -.140E+01 -.229E+02 0.459E+02   -.650E+00 0.224E+02 -.529E+02   0.130E+01 -.134E+01 0.658E+01   0.116E-03 -.207E-03 0.566E-04
   -.386E+02 -.944E+02 -.722E+01   0.439E+02 0.107E+03 0.886E+01   -.335E+01 -.932E+01 0.232E+00   0.453E-04 -.276E-03 -.321E-04
   -.692E+01 -.980E+00 0.135E+02   0.631E+01 0.127E+01 -.131E+02   -.124E+01 0.574E+00 0.180E+01   -.173E-03 -.136E-04 0.136E-03
   -.200E+02 -.257E+02 -.308E+02   0.217E+02 0.272E+02 0.332E+02   -.277E+01 -.283E+01 -.396E+01   -.136E-03 -.382E-04 0.250E-04
   0.752E+01 -.377E+02 0.110E+02   -.878E+01 0.405E+02 -.113E+02   0.236E+01 -.485E+01 0.503E+00   0.146E-03 -.249E-04 0.197E-03
   -.784E+02 0.358E+00 -.179E+02   0.931E+02 0.988E+00 0.229E+02   -.102E+02 -.659E+00 -.309E+01   0.560E-04 0.768E-04 0.674E-04
   0.894E+02 0.947E+01 -.892E+01   -.951E+02 -.962E+01 0.935E+01   0.724E+01 0.613E+00 -.640E+00   -.382E-04 -.492E-04 -.110E-03
   -.150E+02 0.612E+02 -.334E+01   0.183E+02 -.701E+02 0.407E+01   -.297E+01 0.780E+01 -.605E+00   0.824E-04 -.153E-03 -.117E-03
 -----------------------------------------------------------------------------------------------
   0.215E+03 -.119E+03 -.142E+03   0.533E-13 -.341E-12 -.157E-12   -.215E+03 0.119E+03 0.142E+03   0.155E-02 0.213E-02 0.550E-03
 
 
 POSITION                                       TOTAL-FORCE (eV/Angst)
 -----------------------------------------------------------------------------------
      5.69341      3.77490      1.28080         3.007414      0.091498     -0.868413
      1.24440      7.95647      5.96829        -0.061343     -1.551494      1.331285
      0.84765      5.52625      7.38332        -2.251290     -0.162546     -0.463875
      0.68475      3.76007      3.99921        -0.057368      0.143628      0.550141
      0.68254      7.49905      1.63968         2.094173     -1.423866     -3.214386
      7.34822      0.18288      6.86419        -1.067932      0.587516     -1.823470
      7.06967      3.85530      7.43344         0.414588     -1.784157      1.991133
      5.63879      1.87556      7.75932        -4.135470      3.596502      1.796597
      0.13454      2.09568      1.80300         4.015648     -1.649617      3.013538
      2.74678      8.41872      9.59909        -1.205167      1.850707      0.651119
      8.24363      3.85368      0.21705        -0.645077      1.495126      0.397496
      2.67274      2.08845      6.92684         2.163195      0.226192      0.856115
      9.45128      3.24802      6.58723        -1.200207      0.204983     -0.151423
      7.13410      8.01310      8.55200         0.615325     -1.614523      1.614602
      6.64275      0.43076      4.26413        -3.455710      0.749538     -1.242015
      3.39393      5.98584      8.34537        -2.122107      0.961845      3.951169
      2.27545      1.34649      9.33074         2.589763     -0.577224     -3.060468
      4.57553      1.38007      0.90302         0.527798     -0.346178      0.839139
      8.28370      9.31400      2.32889         0.438815      2.628521     -0.872588
      3.35429      3.56444      4.31933        -1.590745     -2.692293     -0.667615
      4.05316      1.16593      3.72060        -1.132007     -0.596564     -2.863926
      0.03798      0.45249      6.19075        -0.402041      1.573976     -0.789524
      1.42618      0.35638      3.66375        -4.534248      0.260572      0.042385
      3.66890      8.18084      4.90610         0.335063     -1.265924      2.664742
      3.47044      5.33450      1.10671        -2.784529     -4.473444     -1.065933
      4.56969      7.21490      2.57170         0.717847     -2.767471     -2.263383
      5.44539      6.40043      6.98767         0.531561      0.656694      1.059329
      6.25553      3.49959      3.91328        -0.990559     -1.929219     -1.314733
      9.17293      6.41499      9.34168         2.024758      0.129697     -0.218337
      5.90715      8.93706      0.96479        -5.510982      1.400062     -1.793036
      9.53855      6.52453      3.92067        -1.802686      0.294278      0.348853
      5.24039      4.61413      1.19475        -1.117168      0.815675     -0.099265
      6.65914      3.99341      0.80380        -1.533569     -1.199675      1.041110
      0.66679      7.82420      5.18790        -0.005379     -0.605578     -0.170681
      1.11238      7.11586      6.56261        -0.214812      1.440603     -1.307984
      0.48206      4.57660      7.35129         0.466612      0.607704     -0.290224
      1.66702      5.63221      7.86297         2.270693     -0.649120      0.750109
      1.69144      3.99380      3.99953        -1.225599     -1.045716      0.907451
      0.28687      3.46257      4.92000         1.140138      0.891397     -1.390902
      0.38915      8.33916      1.85550        -1.321464      3.472065      0.444043
      0.47778      7.07755      2.44558        -0.743306     -1.920546      2.476441
      6.70939      0.14473      6.07587         1.210847      0.459973      0.202334
      7.06500      9.21229      7.34626         0.532646     -1.539515      1.314448
      6.64375      4.52762      6.90823        -1.050174      1.008527     -0.274809
      6.38235      3.18345      7.91153         0.854927      0.966833     -1.878407
      5.04303      1.64357      8.50952        -0.076488      0.446304     -0.239784
      6.13958      1.12815      7.70246         3.505925     -3.846754     -0.849373
      9.20694      2.51800      1.47570        -2.888093      2.231652     -1.270772
      0.45143      2.53668      2.73470        -1.122129     -0.483187     -2.044564
      2.44314      9.48704      9.50920         0.663410     -3.079714      0.103713
      2.26919      7.98539      0.56951         0.358119      1.036272     -0.914355
      7.89475      3.92357      9.12065        -0.273723     -0.752229     -1.141951
      8.45135      4.84963      0.23024         0.817198     -0.245709      0.378249
      1.77759      1.92007      6.78587        -3.152880     -1.031969     -0.864252
      2.89745      2.69390      6.20671         0.601755      0.722387     -0.501180
      9.67949      2.33456      6.44138         1.175919     -1.908322     -0.104667
      8.45898      3.04399      6.75631         0.299594      1.704603      0.222787
      6.72474      8.29563      9.41120        -0.770084      0.538135     -0.445273
      7.78660      7.31400      8.99033         0.110657      0.803397     -1.500901
      6.78400      1.39181      4.06378         0.421626     -0.020686      0.376782
      5.54033      0.49125      4.08068         2.476342     -0.554908      0.700700
      3.51119      5.59600      9.38387        -0.246888      0.357016     -2.280952
      2.98292      6.89567      8.71890         1.087647     -0.967584     -1.087198
      2.31190      1.89212      8.40759         0.323190     -0.924123      1.865472
      1.62937      1.61000      0.11104        -2.903091      1.405867      2.022991
      3.67623      1.31914      0.57074        -1.412846     -0.332441     -1.031259
      4.67554      2.32127      1.13716         1.012142      0.841641     -0.065937
      8.87115      0.31947      1.81317        -2.753728     -2.191011      2.300606
      7.43260      9.64035      2.98448         2.579976      0.037542     -1.142541
      4.01834      4.14611      4.59513         2.190773      1.786873      0.739631
      3.83197      2.62509      4.13254        -0.723225      1.326113     -0.055006
      3.04247      0.96249      3.57070         0.429475     -0.470926      1.468678
      4.21407      1.03089      2.70110         0.619894      0.626040      1.316657
      8.86757      0.21482      6.30956         0.470790     -0.103435      0.240965
      0.60458      9.47575      6.18538         0.236791     -1.046612      0.671406
      0.66531      0.34916      2.85995         2.616223      0.360555      2.895682
      0.73409      0.48054      4.58582         2.007821     -0.223118     -2.615046
      2.87065      7.83505      5.47039         0.550846      0.986415     -1.462695
      4.36496      8.00149      5.62776        -0.408997      0.186683     -1.248832
      3.86943      6.07039      1.55191         0.522767      2.030931      2.640395
      2.86152      4.64244      1.64468         2.145005      2.743379     -1.262906
      4.23256      7.41086      3.42653        -1.017553      1.382913      2.120163
      4.78201      7.91912      1.95522         0.501555      1.294779     -0.092025
      5.87131      6.78634      7.83316         0.286829     -0.089033     -1.563804
      4.54079      6.28376      7.41599         0.154902     -0.458096     -0.413641
      6.06310      3.70046      2.93634        -0.760091     -1.841493     -0.472859
      6.57129      4.36250      3.89479         1.892373      3.506758      1.878296
      0.06967      6.07391      8.42980        -1.823716      0.854915      2.101787
      9.72118      6.95096      0.27035        -1.021628     -1.358728     -1.546689
      5.47127      0.09789      0.87801         1.106791     -2.122679      0.181572
      6.76999      9.01404      1.22859         4.530032      0.688674      1.908472
      8.53897      6.41229      4.00842         1.488438      0.463462     -0.213419
      0.05079      5.61231      3.99488         0.379484     -1.029991      0.138696
 -----------------------------------------------------------------------------------
    total drift:                               -0.004543      0.010239     -0.006005


--------------------------------------------------------------------------------------------------------



  FREE ENERGIE OF THE ION-ELECTRON SYSTEM (eV)
  ---------------------------------------------------
  free  energy   TOTEN  =      -450.04599548 eV

  energy  without entropy=     -450.04599548  energy(sigma->0) =     -450.04599548
 


--------------------------------------------------------------------------------------------------------


    POTLOK:  cpu time    0.0337: real time    0.0339


--------------------------------------------------------------------------------------------------------


     LOOP+:  cpu time 1409.7465: real time 1422.9630
    4ORBIT:  cpu time    0.0000: real time    0.0000

 total amount of memory used by VASP MPI-rank0   666509. kBytes
=======================================================================

   base      :      30000. kBytes
   nonlr-proj:       2433. kBytes
   fftplans  :       1123. kBytes
   grid      :       1850. kBytes
   one-center:         15. kBytes
   wavefun   :     631088. kBytes
 
  
  
 General timing and accounting informations for this job:
 ========================================================
  
                  Total CPU time used (sec):     1495.051
                            User time (sec):     1489.593
                          System time (sec):        5.457
                         Elapsed time (sec):     1509.741
  
                   Maximum memory used (kb):     1495684.
                   Average memory used (kb):           0.
  
                          Minor page faults:       221663
                          Major page faults:         1478
                 Voluntary context switches:        17015
