 vasp.5.4.4.18Apr17-6-g9f103f2a35 (build Feb 03 2021 10:20:21) gamma-only       
  
 executed on             LinuxGNU date 2024.04.12  09:59:29
 running on   40 total cores
 distrk:  each k-point on   40 cores,    1 groups
 distr:  one band on NCORES_PER_BAND=  20 cores,    2 groups


--------------------------------------------------------------------------------------------------------


 INCAR:
 POTCAR:    PAW_PBE H 15Jun2001                   
 POTCAR:    PAW_PBE O 08Apr2002                   

 ----------------------------------------------------------------------------- 
|                                                                             |
|           W    W    AA    RRRRR   N    N  II  N    N   GGGG   !!!           |
|           W    W   A  A   R    R  NN   N  II  NN   N  G    G  !!!           |
|           W    W  A    A  R    R  N N  N  II  N N  N  G       !!!           |
|           W WW W  AAAAAA  RRRRR   N  N N  II  N  N N  G  GGG   !            |
|           WW  WW  A    A  R   R   N   NN  II  N   NN  G    G                |
|           W    W  A    A  R    R  N    N  II  N    N   GGGG   !!!           |
|                                                                             |
|      For optimal performance we recommend to set                            |
|        NCORE= 4 - approx SQRT( number of cores)                             |
|      NCORE specifies how many cores store one orbital (NPAR=cpu/NCORE).     |
|      This setting can  greatly improve the performance of VASP for DFT.     |
|      The default,   NCORE=1            might be grossly inefficient         |
|      on modern multi-core architectures or massively parallel machines.     |
|      Do your own testing !!!!                                               |
|      Unfortunately you need to use the default for GW and RPA calculations. |
|      (for HF NCORE is supported but not extensively tested yet)             |
|                                                                             |
 ----------------------------------------------------------------------------- 

 POTCAR:    PAW_PBE H 15Jun2001                   
  local pseudopotential read in
  atomic valenz-charges read in
  non local Contribution for L=           0  read in
    real space projection operators read in
  non local Contribution for L=           0  read in
    real space projection operators read in
  non local Contribution for L=           1  read in
    real space projection operators read in
    PAW grid and wavefunctions read in
 
   number of l-projection  operators is LMAX  =           3
   number of lm-projection operators is LMMAX =           5
 
 POTCAR:    PAW_PBE O 08Apr2002                   
  local pseudopotential read in
  partial core-charges read in
  partial kinetic energy density read in
  kinetic energy density of atom read in
  atomic valenz-charges read in
  non local Contribution for L=           0  read in
    real space projection operators read in
  non local Contribution for L=           0  read in
    real space projection operators read in
  non local Contribution for L=           1  read in
    real space projection operators read in
  non local Contribution for L=           1  read in
    real space projection operators read in
    PAW grid and wavefunctions read in
 
   number of l-projection  operators is LMAX  =           4
   number of lm-projection operators is LMMAX =           8
 
 Optimization of the real space projectors (new method)

 maximal supplied QI-value         = 34.20
 optimisation between [QCUT,QGAM] = [  9.92, 20.18] = [ 27.55,114.04] Ry 
 Optimized for a Real-space Cutoff    1.26 Angstroem

   l    n(q)    QCUT    max X(q) W(low)/X(q) W(high)/X(q)  e(spline) 
   0      8     9.919    19.460    0.50E-03    0.23E-03    0.29E-06
   0      8     9.919    12.209    0.48E-03    0.23E-03    0.28E-06
   1      7     9.919     4.655    0.17E-03    0.75E-03    0.30E-06
 Optimization of the real space projectors (new method)

 maximal supplied QI-value         = 24.76
 optimisation between [QCUT,QGAM] = [ 10.15, 20.30] = [ 28.85,115.39] Ry 
 Optimized for a Real-space Cutoff    1.38 Angstroem

   l    n(q)    QCUT    max X(q) W(low)/X(q) W(high)/X(q)  e(spline) 
   0      8    10.150    20.381    0.22E-03    0.32E-03    0.29E-06
   0      8    10.150    15.268    0.23E-03    0.35E-03    0.30E-06
   1      8    10.150     5.964    0.46E-03    0.53E-03    0.21E-06
   1      8    10.150     5.382    0.38E-03    0.45E-03    0.19E-06
  PAW_PBE H 15Jun2001                   :
 energy of atom  1       EATOM=  -12.4884
 kinetic energy error for atom=    0.0098 (will be added to EATOM!!)
  PAW_PBE O 08Apr2002                   :
 energy of atom  2       EATOM= -432.3788
 kinetic energy error for atom=    0.1156 (will be added to EATOM!!)
 
 
 POSCAR: bilayer_3                               
  positions in direct lattice
  velocities in cartesian coordinates
 exchange correlation table for  LEXCH =        8
   RHO(1)=    0.500       N(1)  =     2000
   RHO(2)=  100.500       N(2)  =     4000
 


--------------------------------------------------------------------------------------------------------


 ion  position               nearest neighbor table
   1  0.168  0.063  0.291- 147 1.00
   2  0.395  0.332  0.291- 150 1.00
   3  0.105  0.168  0.211- 158 1.00
   4  0.105  0.168  0.370- 159 1.00
   5  0.063  0.395  0.211- 161 1.00
   6  0.063  0.395  0.370- 162 1.00
   7  0.168  0.105  0.211- 158 1.00
   8  0.168  0.105  0.370- 159 1.00
   9  0.395  0.063  0.211- 155 1.00
  10  0.395  0.063  0.370- 156 1.00
  11  0.063  0.168  0.291- 153 1.00
  12  0.332  0.395  0.291- 150 1.00
  13  0.177  0.000  0.178- 145 0.97
  14  0.174  0.000  0.337- 146 0.98
  15  0.237  0.000  0.206- 145 1.05
  16  0.236  0.000  0.364- 146 1.05
  17  0.323  0.323  0.178- 148 0.97
  18  0.326  0.326  0.337- 149 0.98
  19  0.263  0.263  0.206- 148 1.05
  20  0.264  0.264  0.364- 149 1.05
  21  1.000  0.177  0.178- 151 0.97
  22  1.000  0.174  0.337- 152 0.98
  23  1.000  0.237  0.206- 151 1.05
  24  1.000  0.236  0.364- 152 1.05
  25  0.326  0.000  0.258- 154 0.98
  26  0.264  0.000  0.286- 154 1.04
  27  0.174  0.174  0.258- 157 0.98
  28  0.236  0.236  0.286- 157 1.04
  29  1.000  0.326  0.258- 160 0.98
  30  0.000  0.264  0.286- 160 1.04
  31  0.668  0.063  0.291- 165 1.00
  32  0.895  0.332  0.291- 168 1.00
  33  0.437  0.105  0.291- 171 1.00
  34  0.605  0.168  0.211- 176 1.00
  35  0.605  0.168  0.370- 177 1.00
  36  0.563  0.395  0.211- 179 1.00
  37  0.563  0.395  0.370- 180 1.00
  38  0.437  0.332  0.211- 179 1.00
  39  0.437  0.332  0.370- 180 1.00
  40  0.668  0.105  0.211- 176 1.00
  41  0.668  0.105  0.370- 177 1.00
  42  0.895  0.063  0.211- 173 1.00
  43  0.895  0.063  0.370- 174 1.00
  44  0.563  0.168  0.291- 171 1.00
  45  0.832  0.395  0.291- 168 1.00
  46  0.677  0.000  0.178- 163 0.97
  47  0.674  0.000  0.337- 164 0.98
  48  0.737  0.000  0.206- 163 1.05
  49  0.736  0.000  0.364- 164 1.05
  50  0.823  0.323  0.178- 166 0.97
  51  0.826  0.326  0.337- 167 0.98
  52  0.763  0.263  0.206- 166 1.05
  53  0.764  0.264  0.364- 167 1.05
  54  0.500  0.177  0.178- 169 0.97
  55  0.500  0.174  0.337- 170 0.98
  56  0.500  0.237  0.206- 169 1.05
  57  0.500  0.236  0.364- 170 1.05
  58  0.826  0.000  0.258- 172 0.98
  59  0.764  0.000  0.286- 172 1.04
  60  0.674  0.174  0.258- 175 0.98
  61  0.736  0.236  0.286- 175 1.04
  62  0.500  0.326  0.258- 178 0.98
  63  0.500  0.264  0.286- 178 1.04
  64  0.168  0.563  0.291- 183 1.00
  65  0.395  0.832  0.291- 186 1.00
  66  0.332  0.437  0.211- 191 1.00
  67  0.332  0.437  0.370- 192 1.00
  68  0.105  0.668  0.211- 194 1.00
  69  0.105  0.668  0.370- 195 1.00
  70  0.063  0.895  0.211- 197 1.00
  71  0.063  0.895  0.370- 198 1.00
  72  0.168  0.605  0.211- 194 1.00
  73  0.168  0.605  0.370- 195 1.00
  74  0.395  0.563  0.211- 191 1.00
  75  0.395  0.563  0.370- 192 1.00
  76  0.063  0.668  0.291- 189 1.00
  77  0.332  0.895  0.291- 186 1.00
  78  0.105  0.437  0.291- 183 1.00
  79  0.177  0.500  0.178- 181 0.97
  80  0.174  0.500  0.337- 182 0.98
  81  0.237  0.500  0.206- 181 1.05
  82  0.236  0.500  0.364- 182 1.05
  83  0.323  0.823  0.178- 184 0.97
  84  0.326  0.826  0.337- 185 0.98
  85  0.263  0.763  0.206- 184 1.05
  86  0.264  0.764  0.364- 185 1.05
  87  1.000  0.677  0.178- 187 0.97
  88  1.000  0.674  0.337- 188 0.98
  89  1.000  0.737  0.206- 187 1.05
  90  1.000  0.736  0.364- 188 1.05
  91  0.326  0.500  0.258- 190 0.98
  92  0.264  0.500  0.286- 190 1.04
  93  0.174  0.674  0.258- 193 0.98
  94  0.236  0.736  0.286- 193 1.04
  95  0.000  0.826  0.258- 196 0.98
  96  1.000  0.764  0.286- 196 1.04
  97  0.668  0.563  0.291- 201 1.00
  98  0.895  0.832  0.291- 204 1.00
  99  0.437  0.605  0.291- 207 1.00
 100  0.832  0.437  0.211- 209 1.00
 101  0.832  0.437  0.370- 210 1.00
 102  0.605  0.668  0.211- 212 1.00
 103  0.605  0.668  0.370- 213 1.00
 104  0.563  0.895  0.211- 215 1.00
 105  0.563  0.895  0.370- 216 1.00
 106  0.437  0.832  0.211- 215 1.00
 107  0.437  0.832  0.370- 216 1.00
 108  0.668  0.605  0.211- 212 1.00
 109  0.668  0.605  0.370- 213 1.00
 110  0.895  0.563  0.211- 209 1.00
 111  0.895  0.563  0.370- 210 1.00
 112  0.563  0.668  0.291- 207 1.00
 113  0.832  0.895  0.291- 204 1.00
 114  0.605  0.437  0.291- 201 1.00
 115  0.677  0.500  0.178- 199 0.97
 116  0.674  0.500  0.337- 200 0.98
 117  0.737  0.500  0.206- 199 1.05
 118  0.736  0.500  0.364- 200 1.05
 119  0.823  0.823  0.178- 202 0.97
 120  0.826  0.826  0.337- 203 0.98
 121  0.763  0.763  0.206- 202 1.05
 122  0.764  0.764  0.364- 203 1.05
 123  0.500  0.677  0.178- 205 0.97
 124  0.500  0.674  0.337- 206 0.98
 125  0.500  0.737  0.206- 205 1.05
 126  0.500  0.736  0.364- 206 1.05
 127  0.826  0.500  0.258- 208 0.98
 128  0.764  0.500  0.286- 208 1.04
 129  0.674  0.674  0.258- 211 0.98
 130  0.736  0.736  0.286- 211 1.04
 131  0.500  0.826  0.258- 214 0.98
 132  0.500  0.764  0.286- 214 1.04
 133  0.937  0.105  0.291- 153 1.00
 134  0.937  0.332  0.211- 161 1.00
 135  0.937  0.332  0.370- 162 1.00
 136  0.937  0.605  0.291- 189 1.00
 137  0.937  0.832  0.211- 197 1.00
 138  0.937  0.832  0.370- 198 1.00
 139  0.332  0.937  0.211- 155 1.00
 140  0.332  0.937  0.370- 156 1.00
 141  0.105  0.937  0.291- 147 1.00
 142  0.832  0.937  0.211- 173 1.00
 143  0.832  0.937  0.370- 174 1.00
 144  0.605  0.937  0.291- 165 1.00
 145  0.171  0.000  0.198-  13 0.97  15 1.05
 146  0.170  0.000  0.357-  14 0.98  16 1.05
 147  0.171  0.000  0.298- 141 1.00   1 1.00
 148  0.329  0.329  0.198-  17 0.97  19 1.05
 149  0.330  0.330  0.357-  18 0.98  20 1.05
 150  0.329  0.329  0.298-  12 1.00   2 1.00
 151  0.000  0.171  0.198-  21 0.97  23 1.05
 152  0.000  0.170  0.357-  22 0.98  24 1.05
 153  0.000  0.171  0.298-  11 1.00 133 1.00
 154  0.331  0.000  0.278-  25 0.98  26 1.04
 155  0.329  0.000  0.218-   9 1.00 139 1.00
 156  0.328  0.000  0.376-  10 1.00 140 1.00
 157  0.169  0.169  0.278-  27 0.98  28 1.04
 158  0.171  0.171  0.218-   7 1.00   3 1.00
 159  0.172  0.172  0.376-   8 1.00   4 1.00
 160  1.000  0.331  0.278-  29 0.98  30 1.04
 161  1.000  0.329  0.218-   5 1.00 134 1.00
 162  1.000  0.328  0.376-   6 1.00 135 1.00
 163  0.671  0.000  0.198-  46 0.97  48 1.05
 164  0.670  0.000  0.357-  47 0.98  49 1.05
 165  0.671  0.000  0.298- 144 1.00  31 1.00
 166  0.829  0.329  0.198-  50 0.97  52 1.05
 167  0.830  0.330  0.357-  51 0.98  53 1.05
 168  0.829  0.329  0.298-  45 1.00  32 1.00
 169  0.500  0.171  0.198-  54 0.97  56 1.05
 170  0.500  0.170  0.357-  55 0.98  57 1.05
 171  0.500  0.171  0.298-  44 1.00  33 1.00
 172  0.831  0.000  0.278-  58 0.98  59 1.04
 173  0.829  0.000  0.218-  42 1.00 142 1.00
 174  0.828  0.000  0.376-  43 1.00 143 1.00
 175  0.669  0.169  0.278-  60 0.98  61 1.04
 176  0.671  0.171  0.218-  40 1.00  34 1.00
 177  0.672  0.172  0.376-  41 1.00  35 1.00
 178  0.500  0.331  0.278-  62 0.98  63 1.04
 179  0.500  0.329  0.218-  36 1.00  38 1.00
 180  0.500  0.328  0.376-  37 1.00  39 1.00
 181  0.171  0.500  0.198-  79 0.97  81 1.05
 182  0.170  0.500  0.357-  80 0.98  82 1.05
 183  0.171  0.500  0.298-  78 1.00  64 1.00
 184  0.329  0.829  0.198-  83 0.97  85 1.05
 185  0.330  0.830  0.357-  84 0.98  86 1.05
 186  0.329  0.829  0.298-  65 1.00  77 1.00
 187  1.000  0.671  0.198-  87 0.97  89 1.05
 188  1.000  0.670  0.357-  88 0.98  90 1.05
 189  0.000  0.671  0.298-  76 1.00 136 1.00
 190  0.331  0.500  0.278-  91 0.98  92 1.04
 191  0.329  0.500  0.218-  66 1.00  74 1.00
 192  0.328  0.500  0.376-  67 1.00  75 1.00
 193  0.169  0.669  0.278-  93 0.98  94 1.04
 194  0.171  0.671  0.218-  68 1.00  72 1.00
 195  0.172  0.672  0.376-  69 1.00  73 1.00
 196  0.000  0.831  0.278-  95 0.98  96 1.04
 197  0.000  0.829  0.218- 137 1.00  70 1.00
 198  0.000  0.828  0.376- 138 1.00  71 1.00
 199  0.671  0.500  0.198- 115 0.97 117 1.05
 200  0.670  0.500  0.357- 116 0.98 118 1.05
 201  0.671  0.500  0.298-  97 1.00 114 1.00
 202  0.829  0.829  0.198- 119 0.97 121 1.05
 203  0.830  0.830  0.357- 120 0.98 122 1.05
 204  0.829  0.829  0.298-  98 1.00 113 1.00
 205  0.500  0.671  0.198- 123 0.97 125 1.05
 206  0.500  0.670  0.357- 124 0.98 126 1.05
 207  0.500  0.671  0.298-  99 1.00 112 1.00
 208  0.831  0.500  0.278- 127 0.98 128 1.04
 209  0.829  0.500  0.218- 100 1.00 110 1.00
 210  0.828  0.500  0.376- 101 1.00 111 1.00
 211  0.669  0.669  0.278- 129 0.98 130 1.04
 212  0.671  0.671  0.218- 102 1.00 108 1.00
 213  0.672  0.672  0.376- 103 1.00 109 1.00
 214  0.500  0.831  0.278- 131 0.98 132 1.04
 215  0.500  0.829  0.218- 106 1.00 104 1.00
 216  0.500  0.828  0.376- 107 1.00 105 1.00
 
  LATTYP: Found a hexagonal cell.
 ALAT       =    14.6976995468
 C/A-ratio  =     3.3474899354
  
  Lattice vectors:
  
 A1 = (  14.6976995468,   0.0000000000,   0.0000000000)
 A2 = (  -7.3488497734,  12.7285811847,   0.0000000000)
 A3 = (   0.0000000000,   0.0000000000,  49.2004013062)


Analysis of symmetry for initial positions (statically):
=====================================================================
 Subroutine PRICEL returns following result:
 
  LATTYP: Found a hexagonal cell.
 ALAT       =     7.3488496637
 C/A-ratio  =     6.6949799707
  
  Lattice vectors:
  
 A1 = (   7.3488497729,   0.0000000000,   0.0000000000)
 A2 = (  -3.6744247772,   6.3642904027,   0.0000000000)
 A3 = (   0.0000000000,   0.0000000000,  49.2004013062)
 
   4 primitive cells build up your supercell.
 

 Routine SETGRP: Setting up the symmetry group for a 
 hexagonal supercell.


 Subroutine GETGRP returns: Found  6 space group operations
 (whereof  6 operations were pure point group operations)
 out of a pool of 24 trial point group operations.


The static configuration has the point symmetry C_3v.


Analysis of symmetry for dynamics (positions and initial velocities):
=====================================================================
 Subroutine PRICEL returns following result:
 
  LATTYP: Found a hexagonal cell.
 ALAT       =     7.3488496637
 C/A-ratio  =     6.6949799707
  
  Lattice vectors:
  
 A1 = (   7.3488497729,   0.0000000000,   0.0000000000)
 A2 = (  -3.6744247772,   6.3642904027,   0.0000000000)
 A3 = (   0.0000000000,   0.0000000000,  49.2004013062)
 
   4 primitive cells build up your supercell.
 

 Routine SETGRP: Setting up the symmetry group for a 
 hexagonal supercell.


 Subroutine GETGRP returns: Found  6 space group operations
 (whereof  6 operations were pure point group operations)
 out of a pool of 24 trial point group operations.


The dynamic configuration has the point symmetry C_3v.


 Subroutine INISYM returns: Found  6 space group operations
 (whereof  6 operations are pure point group operations),
 and found     4 'primitive' translations

 
 
 KPOINTS: automatic mesh                          

Automatic generation of k-mesh.
Space group operators:
 irot       det(A)        alpha          n_x          n_y          n_z        tau_x        tau_y        tau_z
    1     1.000000     0.000000     1.000000     0.000000     0.000000     0.000000     0.000000     0.000000
    2     1.000000   120.000000     0.000000     0.000000    -1.000000     0.000000     0.000000     0.000000
    3     1.000000   120.000000     0.000000     0.000000     1.000000     0.000000     0.000000     0.000000
    4    -1.000000   180.000000     0.866025    -0.500000     0.000000     0.000000     0.000000     0.000000
    5    -1.000000   180.000000     0.000000     1.000000     0.000000     0.000000     0.000000     0.000000
    6    -1.000000   180.000000     0.866025     0.500000     0.000000     0.000000     0.000000     0.000000
 
 Subroutine IBZKPT returns following result:
 ===========================================
 
 Found      1 irreducible k-points:
 
 Following reciprocal coordinates:
            Coordinates               Weight
  0.000000  0.000000  0.000000      1.000000
 
 Following cartesian coordinates:
            Coordinates               Weight
  0.000000  0.000000  0.000000      1.000000
 


--------------------------------------------------------------------------------------------------------




 Dimension of arrays:
   k-points           NKPTS =      1   k-points in BZ     NKDIM =      1   number of bands    NBANDS=    398
   number of dos      NEDOS =    301   number of ions     NIONS =    216
   non local maximal  LDIM  =      4   non local SUM 2l+1 LMDIM =      8
   total plane-waves  NPLWV = ******
   max r-space proj   IRMAX =   1601   max aug-charges    IRDMAX=   2026
   dimension x,y,z NGX =    72 NGY =   72 NGZ =  250
   dimension x,y,z NGXF=   144 NGYF=  144 NGZF=  500
   support grid    NGXF=   144 NGYF=  144 NGZF=  500
   ions per type =             144  72
   NGX,Y,Z   is equivalent  to a cutoff of   8.14,  8.14,  8.45 a.u.
   NGXF,Y,Z  is equivalent  to a cutoff of  16.29, 16.29, 16.89 a.u.

 SYSTEM =  ice                                     
 POSCAR =  bilayer_3                               

 Startparameter for this run:
   NWRITE =      0    write-flag & timer
   PREC   = normal    normal or accurate (medium, high low for compatibility)
   ISTART =      0    job   : 0-new  1-cont  2-samecut
   ICHARG =      1    charge: 1-file 2-atom 10-const
   ISPIN  =      1    spin polarized calculation?
   LNONCOLLINEAR =      F non collinear calculations
   LSORBIT =      F    spin-orbit coupling
   INIWAV =      1    electr: 0-lowe 1-rand  2-diag
   LASPH  =      F    aspherical Exc in radial PAW
   METAGGA=      F    non-selfconsistent MetaGGA calc.

 Electronic Relaxation 1
   ENCUT  =  400.0 eV  29.40 Ry    5.42 a.u.  23.97 23.97 80.23*2*pi/ulx,y,z
   ENINI  =  400.0     initial cutoff
   ENAUG  =  605.4 eV  augmentation charge cutoff
   NELM   =    500;   NELMIN=  4; NELMDL=  0     # of ELM steps 
   EDIFF  = 0.1E-05   stopping-criterion for ELM
   LREAL  =      T    real-space projection
   NLSPLINE    = F    spline interpolate recip. space projectors
   LCOMPAT=      F    compatible to vasp.4.4
   GGA_COMPAT  = T    GGA compatible to vasp.4.4-vasp.4.6
   LMAXPAW     = -100 max onsite density
   LMAXMIX     =    2 max onsite mixed and CHGCAR
   VOSKOWN=      0    Vosko Wilk Nusair interpolation
   ROPT   =   -0.00050  -0.00050
 Ionic relaxation
   EDIFFG = 0.1E-04   stopping-criterion for IOM
   NSW    =      0    number of steps for IOM
   NBLOCK =      1;   KBLOCK =      1    inner block; outer block 
   IBRION =     -1    ionic relax: 0-MD 1-quasi-New 2-CG
   NFREE  =      0    steps in history (QN), initial steepest desc. (CG)
   ISIF   =      2    stress and relaxation
   IWAVPR =     10    prediction:  0-non 1-charg 2-wave 3-comb
   ISYM   =      2    0-nonsym 1-usesym 2-fastsym
   LCORR  =      T    Harris-Foulkes like correction to forces

   POTIM  = 0.5000    time-step for ionic-motion
   TEIN   =    0.0    initial temperature
   TEBEG  =    0.0;   TEEND  =   0.0 temperature during run
   SMASS  =  -3.00    Nose mass-parameter (am)
   estimated Nose-frequenzy (Omega)   =  0.10E-29 period in steps =****** mass=  -0.494E-26a.u.
   SCALEE = 1.0000    scale energy and forces
   NPACO  =    256;   APACO  = 16.0  distance and # of slots for P.C.
   PSTRESS=    0.0 pullay stress

  Mass of Ions in am
   POMASS =   1.00 16.00
  Ionic Valenz
   ZVAL   =   1.00  6.00
  Atomic Wigner-Seitz radii
   RWIGS  =  -1.00 -1.00
  virtual crystal weights 
   VCA    =   1.00  1.00
   NELECT =     576.0000    total number of electrons
   NUPDOWN=      -1.0000    fix difference up-down

 DOS related values:
   EMIN   =  10.00;   EMAX   =-10.00  energy-range for DOS
   EFERMI =   0.00
   ISMEAR =    -1;   SIGMA  =   0.05  broadening in eV -4-tet -1-fermi 0-gaus

 Electronic relaxation 2 (details)
   IALGO  =     68    algorithm
   LDIAG  =      T    sub-space diagonalisation (order eigenvalues)
   LSUBROT=      F    optimize rotation matrix (better conditioning)
   TURBO    =      0    0=normal 1=particle mesh
   IRESTART =      0    0=no restart 2=restart with 2 vectors
   NREBOOT  =      0    no. of reboots
   NMIN     =      0    reboot dimension
   EREF     =   0.00    reference energy to select bands
   IMIX   =      4    mixing-type and parameters
     AMIX     =   0.40;   BMIX     =  1.00
     AMIX_MAG =   1.60;   BMIX_MAG =  1.00
     AMIN     =   0.10
     WC   =   100.;   INIMIX=   1;  MIXPRE=   1;  MAXMIX=  40

 Intra band minimization:
   WEIMIN = 0.0000     energy-eigenvalue tresh-hold
   EBREAK =  0.63E-09  absolut break condition
   DEPER  =   0.30     relativ break condition  

   TIME   =   0.40     timestep for ELM

  volume/ion in A,a.u.               =      42.61       287.57
  Fermi-wavevector in a.u.,A,eV,Ry     =   0.649955  1.228236  5.747658  0.422441
  Thomas-Fermi vector in A             =   1.719077
 
 Write flags
   LWAVE        =      F    write WAVECAR
   LDOWNSAMPLE  =      F    k-point downsampling of WAVECAR
   LCHARG       =      T    write CHGCAR
   LVTOT        =      F    write LOCPOT, total local potential
   LVHAR        =      T    write LOCPOT, Hartree potential only
   LELF         =      F    write electronic localiz. function (ELF)
   LORBIT       =     11    0 simple, 1 ext, 2 COOP (PROOUT), +10 PAW based schemes


 Dipole corrections
   LMONO  =      F    monopole corrections only (constant potential shift)
   LDIPOL =      T    correct potential (dipole corrections)
   IDIPOL =      3    1-x, 2-y, 3-z, 4-all directions 
   EPSILON=  1.0000000 bulk dielectric constant

 Exchange correlation treatment:
   GGA     =    --    GGA type
   LEXCH   =     8    internal setting for exchange type
   VOSKOWN=      0    Vosko Wilk Nusair interpolation
   LHFCALC =     F    Hartree Fock is set to
   LHFONE  =     F    Hartree Fock one center treatment
   AEXX    =    0.0000 exact exchange contribution

 Linear response parameters
   LEPSILON=     F    determine dielectric tensor
   LRPA    =     F    only Hartree local field effects (RPA)
   LNABLA  =     F    use nabla operator in PAW spheres
   LVEL    =     F    velocity operator in full k-point grid
   LINTERFAST=   F  fast interpolation
   KINTER  =     0    interpolate to denser k-point grid
   CSHIFT  =0.1000    complex shift for real part using Kramers Kronig
   OMEGAMAX=  -1.0    maximum frequency
   DEG_THRESHOLD= 0.2000000E-02 threshold for treating states as degnerate
   RTIME   =   -0.100 relaxation time in fs
  (WPLASMAI=    0.000 imaginary part of plasma frequency in eV, 0.658/RTIME)
   DFIELD  = 0.0000000 0.0000000 0.0000000 field for delta impulse in time
 
 Orbital magnetization related:
   ORBITALMAG=     F  switch on orbital magnetization
   LCHIMAG   =     F  perturbation theory with respect to B field
   DQ        =  0.001000  dq finite difference perturbation B field
   LLRAUG    =     F  two centre corrections for induced B field



--------------------------------------------------------------------------------------------------------


 Static calculation
 charge density and potential will be updated during run
 non-spin polarized calculation
 RMM-DIIS sequential band-by-band and
  variant of blocked Davidson during initial phase
 perform sub-space diagonalisation
    before iterative eigenvector-optimisation
 modified Broyden-mixing scheme, WC =      100.0
 initial mixing is a Kerker type mixing with AMIX =  0.4000 and BMIX =      1.0000
 Hartree-type preconditioning will be used
 using additional bands          110
 real space projection scheme for non local part
 use partial core corrections
 calculate Harris-corrections to forces 
   (improved forces if not selfconsistent)
 use gradient corrections 
 use of overlap-Matrix (Vanderbilt PP)
 Fermi-smearing in eV        SIGMA  =   0.05


--------------------------------------------------------------------------------------------------------


  energy-cutoff  :      400.00
  volume of cell :     9204.45
      direct lattice vectors                 reciprocal lattice vectors
    14.697699547  0.000000000  0.000000000     0.068037858  0.039281676  0.000000000
    -7.348849773 12.728581185  0.000000000     0.000000000  0.078563352  0.000000000
     0.000000000  0.000000000 49.200401306     0.000000000  0.000000000  0.020325037

  length of vectors
    14.697699547 14.697699547 49.200401306     0.078563352  0.078563352  0.020325037


 
 k-points in units of 2pi/SCALE and weight: automatic mesh                          
   0.00000000  0.00000000  0.00000000       1.000
 
 k-points in reciprocal lattice and weights: automatic mesh                          
   0.00000000  0.00000000  0.00000000       1.000
 
 position of ions in fractional coordinates (direct lattice) 
   0.16825099  0.06298295  0.29107016
   0.39473196  0.33174902  0.29107016
   0.10525515  0.16815814  0.21102575
   0.10502327  0.16817670  0.36984010
   0.06290299  0.39474486  0.21102575
   0.06315343  0.39497674  0.36984010
   0.16815813  0.10525515  0.21102575
   0.16817669  0.10502327  0.36984010
   0.39474483  0.06290299  0.21102575
   0.39497671  0.06315343  0.36984010
   0.06298296  0.16825101  0.29107016
   0.33174902  0.39473196  0.29107016
   0.17673978  0.00000000  0.17802185
   0.17395300  0.00000000  0.33675247
   0.23740534  0.00000000  0.20563726
   0.23592334  0.00000000  0.36439659
   0.32326020  0.32326020  0.17802185
   0.32604698  0.32604698  0.33675247
   0.26259467  0.26259467  0.20563726
   0.26407667  0.26407667  0.36439659
   1.00000000  0.17673978  0.17802185
   1.00000000  0.17395300  0.33675247
   1.00000000  0.23740534  0.20563726
   1.00000000  0.23592334  0.36439659
   0.32614961  0.00000000  0.25796632
   0.26449077  0.00000000  0.28553281
   0.17385036  0.17385038  0.25796632
   0.23550923  0.23550923  0.28553281
   1.00000000  0.32614961  0.25796632
   0.00000000  0.26449077  0.28553281
   0.66825098  0.06298295  0.29107016
   0.89473196  0.33174902  0.29107016
   0.43701706  0.10526805  0.29107016
   0.60525508  0.16815814  0.21102575
   0.60502320  0.16817670  0.36984010
   0.56290294  0.39474486  0.21102575
   0.56315338  0.39497674  0.36984010
   0.43709703  0.33184189  0.21102575
   0.43684659  0.33182333  0.36984010
   0.66815814  0.10525515  0.21102575
   0.66817670  0.10502327  0.36984010
   0.89474486  0.06290299  0.21102575
   0.89497674  0.06315343  0.36984010
   0.56298294  0.16825101  0.29107016
   0.83174896  0.39473196  0.29107016
   0.67673977  0.00000000  0.17802185
   0.67395299  0.00000000  0.33675247
   0.73740539  0.00000000  0.20563726
   0.73592339  0.00000000  0.36439659
   0.82326017  0.32326020  0.17802185
   0.82604695  0.32604698  0.33675247
   0.76259467  0.26259467  0.20563726
   0.76407667  0.26407667  0.36439659
   0.50000000  0.17673978  0.17802185
   0.50000000  0.17395300  0.33675247
   0.50000000  0.23740534  0.20563726
   0.50000000  0.23592334  0.36439659
   0.82614961  0.00000000  0.25796632
   0.76449077  0.00000000  0.28553281
   0.67385033  0.17385038  0.25796632
   0.73550923  0.23550923  0.28553281
   0.50000000  0.32614961  0.25796632
   0.50000000  0.26449077  0.28553281
   0.16825101  0.56298300  0.29107016
   0.39473199  0.83174902  0.29107016
   0.33184186  0.43709700  0.21102575
   0.33182330  0.43684656  0.36984010
   0.10525516  0.66815814  0.21102575
   0.10502328  0.66817670  0.36984010
   0.06290301  0.89474492  0.21102575
   0.06315345  0.89497680  0.36984010
   0.16815816  0.60525514  0.21102575
   0.16817672  0.60502326  0.36984010
   0.39474489  0.56290300  0.21102575
   0.39497677  0.56315344  0.36984010
   0.06298297  0.66825104  0.29107016
   0.33174902  0.89473202  0.29107016
   0.10526803  0.43701703  0.29107016
   0.17673978  0.50000000  0.17802185
   0.17395300  0.50000000  0.33675247
   0.23740534  0.50000000  0.20563726
   0.23592334  0.50000000  0.36439659
   0.32326023  0.82326023  0.17802185
   0.32604701  0.82604701  0.33675247
   0.26259467  0.76259467  0.20563726
   0.26407667  0.76407667  0.36439659
   1.00000000  0.67673983  0.17802185
   1.00000000  0.67395305  0.33675247
   1.00000000  0.73740539  0.20563726
   1.00000000  0.73592339  0.36439659
   0.32614964  0.50000000  0.25796632
   0.26449080  0.50000000  0.28553281
   0.17385039  0.67385039  0.25796632
   0.23550923  0.73550929  0.28553281
   0.00000000  0.82614967  0.25796632
   1.00000000  0.76449077  0.28553281
   0.66825104  0.56298300  0.29107016
   0.89473196  0.83174902  0.29107016
   0.43701709  0.60526804  0.29107016
   0.83184186  0.43709700  0.21102575
   0.83182330  0.43684656  0.36984010
   0.60525514  0.66815814  0.21102575
   0.60502326  0.66817670  0.36984010
   0.56290300  0.89474492  0.21102575
   0.56315344  0.89497680  0.36984010
   0.43709706  0.83184192  0.21102575
   0.43684662  0.83182336  0.36984010
   0.66815814  0.60525514  0.21102575
   0.66817670  0.60502326  0.36984010
   0.89474492  0.56290300  0.21102575
   0.89497680  0.56315344  0.36984010
   0.56298300  0.66825104  0.29107016
   0.83174902  0.89473202  0.29107016
   0.60526798  0.43701703  0.29107016
   0.67673977  0.50000000  0.17802185
   0.67395299  0.50000000  0.33675247
   0.73740539  0.50000000  0.20563726
   0.73592339  0.50000000  0.36439659
   0.82326023  0.82326023  0.17802185
   0.82604701  0.82604701  0.33675247
   0.76259467  0.76259467  0.20563726
   0.76407667  0.76407667  0.36439659
   0.50000000  0.67673983  0.17802185
   0.50000000  0.67395305  0.33675247
   0.50000000  0.73740539  0.20563726
   0.50000000  0.73592339  0.36439659
   0.82614961  0.50000000  0.25796632
   0.76449077  0.50000000  0.28553281
   0.67385039  0.67385039  0.25796632
   0.73550929  0.73550929  0.28553281
   0.50000000  0.82614967  0.25796632
   0.50000000  0.76449077  0.28553281
   0.93701700  0.10526805  0.29107016
   0.93709700  0.33184189  0.21102575
   0.93684656  0.33182333  0.36984010
   0.93701706  0.60526804  0.29107016
   0.93709700  0.83184192  0.21102575
   0.93684656  0.83182336  0.36984010
   0.33184189  0.93709700  0.21102575
   0.33182333  0.93684656  0.36984010
   0.10526805  0.93701706  0.29107016
   0.83184186  0.93709700  0.21102575
   0.83182330  0.93684656  0.36984010
   0.60526804  0.93701706  0.29107016
   0.17105443  0.00000000  0.19775525
   0.16952233  0.00000000  0.35661450
   0.17120526  0.00000000  0.29755963
   0.32894556  0.32894556  0.19775525
   0.33047765  0.33047765  0.35661450
   0.32879472  0.32879472  0.29755963
   0.00000000  0.17105443  0.19775525
   0.00000000  0.16952233  0.35661450
   0.00000000  0.17120526  0.29755963
   0.33057870  0.00000000  0.27781550
   0.32944920  0.00000000  0.21779707
   0.32821099  0.00000000  0.37584944
   0.16942131  0.16942131  0.27781550
   0.17055077  0.17055077  0.21779707
   0.17178898  0.17178898  0.37584944
   1.00000000  0.33057867  0.27781550
   1.00000000  0.32944923  0.21779707
   1.00000000  0.32821102  0.37584944
   0.67105444  0.00000000  0.19775525
   0.66952235  0.00000000  0.35661450
   0.67120531  0.00000000  0.29755963
   0.82894556  0.32894556  0.19775525
   0.83047765  0.33047765  0.35661450
   0.82879469  0.32879472  0.29755963
   0.50000000  0.17105443  0.19775525
   0.50000000  0.16952233  0.35661450
   0.50000000  0.17120526  0.29755963
   0.83057864  0.00000000  0.27781550
   0.82944920  0.00000000  0.21779707
   0.82821099  0.00000000  0.37584944
   0.66942130  0.16942131  0.27781550
   0.67055080  0.17055077  0.21779707
   0.67178901  0.17178898  0.37584944
   0.50000000  0.33057867  0.27781550
   0.50000000  0.32944923  0.21779707
   0.50000000  0.32821102  0.37584944
   0.17105443  0.50000000  0.19775525
   0.16952233  0.50000000  0.35661450
   0.17120526  0.50000000  0.29755963
   0.32894561  0.82894561  0.19775525
   0.33047771  0.83047771  0.35661450
   0.32879472  0.82879469  0.29755963
   1.00000000  0.67105444  0.19775525
   1.00000000  0.66952235  0.35661450
   0.00000000  0.67120531  0.29755963
   0.33057870  0.50000000  0.27781550
   0.32944923  0.50000000  0.21779707
   0.32821102  0.50000000  0.37584944
   0.16942133  0.66942136  0.27781550
   0.17055075  0.67055080  0.21779707
   0.17178896  0.67178901  0.37584944
   0.00000000  0.83057870  0.27781550
   0.00000000  0.82944920  0.21779707
   0.00000000  0.82821099  0.37584944
   0.67105438  0.50000000  0.19775525
   0.66952229  0.50000000  0.35661450
   0.67120531  0.50000000  0.29755963
   0.82894556  0.82894561  0.19775525
   0.83047765  0.83047771  0.35661450
   0.82879469  0.82879469  0.29755963
   0.50000000  0.67105444  0.19775525
   0.50000000  0.66952235  0.35661450
   0.50000000  0.67120531  0.29755963
   0.83057864  0.50000000  0.27781550
   0.82944920  0.50000000  0.21779707
   0.82821099  0.50000000  0.37584944
   0.66942130  0.66942136  0.27781550
   0.67055080  0.67055080  0.21779707
   0.67178901  0.67178901  0.37584944
   0.50000006  0.83057870  0.27781550
   0.50000000  0.82944920  0.21779707
   0.50000000  0.82821099  0.37584944
 
 position of ions in cartesian coordinates  (Angst):
   2.01005027  0.80168365 14.32076864
   3.36367805  4.22269436 14.32076864
   0.31123961  2.14041456 10.38255180
   0.30769513  2.14065083 18.19628110
  -1.97639136  5.02454200 10.38255180
  -1.97441450  5.02749348 18.19628110
   1.69803336  1.33974869 10.38255180
   1.70001022  1.33679721 18.19628110
   5.33957626  0.80066587 10.38255180
   5.34114388  0.80385362 18.19628110
  -0.31074673  2.14159661 14.32076864
   1.97512157  5.02437782 14.32076864
   2.59766825  0.00000000  8.75874647
   2.55670898  0.00000000 16.56835645
   3.48931241  0.00000000 10.11743570
   3.46753038  0.00000000 17.92845827
   2.37559065  4.11464370  8.75874647
   2.39607029  4.15011548 16.56835645
   1.92976879  3.34245760 10.11743570
   1.94065981  3.36132138 17.92845827
  13.39886542  2.24964670  8.75874647
  13.41934506  2.21417492 16.56835645
  12.95304334  3.02183319 10.11743570
  12.96393435  3.00296940 17.92845827
   4.79364893  0.00000000 12.69204671
   3.88740585  0.00000000 14.04832860
   1.27760009  2.21286865 12.69204671
   1.73072196  2.99769838 14.04832860
  12.30087508  4.15142175 12.69204671
  -1.94370292  3.36659222 14.04832860
   9.35889982  0.80168365 14.32076864
  10.71252782  4.22269436 14.32076864
   5.64954640  1.33991287 14.32076864
   7.66008840  2.14041456 10.38255180
   7.65654391  2.14065083 18.19628110
   5.37245764  5.02454200 10.38255180
   5.37443450  5.02749348 18.19628110
   3.98566461  4.22387641 10.38255180
   3.98212012  4.22364014 18.19628110
   9.04688335  1.33974869 10.38255180
   9.04886021  1.33679721 18.19628110
  12.68842647  0.80066587 10.38255180
  12.68999409  0.80385362 18.19628110
   7.03810271  2.14159661 14.32076864
   9.32397047  5.02437782 14.32076864
   9.94651781  0.00000000  8.75874647
   9.90555853  0.00000000 16.56835645
  10.83816284  0.00000000 10.11743570
  10.81638081  0.00000000 17.92845827
   9.72443999  4.11464370  8.75874647
   9.74491962  4.15011548 16.56835645
   9.27861857  3.34245760 10.11743570
   9.28950958  3.36132138 17.92845827
   6.05001565  2.24964670  8.75874647
   6.07049529  2.21417492 16.56835645
   5.60419357  3.02183319 10.11743570
   5.61508458  3.00296940 17.92845827
  12.14249870  0.00000000 12.69204671
  11.23625562  0.00000000 14.04832860
   8.62644943  2.21286865 12.69204671
   9.07957174  2.99769838 14.04832860
   4.95202531  4.15142175 12.69204671
   5.40514685  3.36659222 14.04832860
  -1.66437473  7.16597481 14.32076864
  -0.31074640 10.58698496 14.32076864
   1.66515175  5.56362463 10.38255180
   1.66671938  5.56043688 18.19628110
  -3.36318506  8.50470515 10.38255180
  -3.36672954  8.50494142 18.19628110
  -5.65081647 11.38883335 10.38255180
  -5.64883961 11.39178483 18.19628110
  -1.97639104  7.70403919 10.38255180
  -1.97441418  7.70108771 18.19628110
   1.66515219  7.16495656 10.38255180
   1.66671982  7.16814431 18.19628110
  -3.98517173  8.50588758 14.32076864
  -1.69930376 11.38866917 14.32076864
  -1.66437462  5.56260676 14.32076864
  -1.07675663  6.36429059  8.75874647
  -1.11771591  6.36429059 16.56835645
  -0.18511248  6.36429059 10.11743570
  -0.20689450  6.36429059 17.92845827
  -1.29883402 10.47893467  8.75874647
  -1.27835438 10.51440645 16.56835645
  -1.74465609  9.70674819 10.11743570
  -1.73376508  9.72561197 17.92845827
   9.72444020  8.61393786  8.75874647
   9.74491984  8.57846608 16.56835645
   9.27861813  9.38612435 10.11743570
   9.28950914  9.36726056 17.92845827
   1.11922448  6.36429059 12.69204671
   0.21298140  6.36429059 14.04832860
  -2.39682446  8.57715944 12.69204671
  -1.94370336  9.36198973 14.04832860
  -6.07124979 10.51571310 12.69204671
   9.07957174  9.73088281 14.04832860
   5.68447548  7.16597481 14.32076864
   7.03810293 10.58698496 14.32076864
   1.97512201  7.70420336 14.32076864
   9.01400153  5.56362463 10.38255180
   9.01556915  5.56043688 18.19628110
   3.98566439  8.50470515 10.38255180
   3.98211990  8.50494142 18.19628110
   1.69803319 11.38883335 10.38255180
   1.70001005 11.39178483 18.19628110
   0.31123994 10.58816739 10.38255180
   0.30769545 10.58793111 18.19628110
   5.37245852  7.70403919 10.38255180
   5.37443538  7.70108771 18.19628110
   9.01400240  7.16495656 10.38255180
   9.01557003  7.16814431 18.19628110
   3.36367849  8.50588758 14.32076864
   5.64954602 11.38866917 14.32076864
   5.68447439  5.56260676 14.32076864
   6.27209292  6.36429059  8.75874647
   6.23113364  6.36429059 16.56835645
   7.16373795  6.36429059 10.11743570
   7.14195593  6.36429059 17.92845827
   6.05001576 10.47893467  8.75874647
   6.07049539 10.51440645 16.56835645
   5.60419368  9.70674819 10.11743570
   5.61508469  9.72561197 17.92845827
   2.37559043  8.61393786  8.75874647
   2.39607007  8.57846608 16.56835645
   1.92976836  9.38612435 10.11743570
   1.94065937  9.36726056 17.92845827
   8.46807381  6.36429059 12.69204671
   7.56183073  6.36429059 14.04832860
   4.95202531  8.57715944 12.69204671
   5.40514729  9.36198973 14.04832860
   1.27759999 10.51571310 12.69204671
   1.73072196  9.73088281 14.04832860
  12.99839530  1.33991287 14.32076864
  11.33451394  4.22387641 10.38255180
  11.33096946  4.22364014 18.19628110
   9.32397134  7.70420336 14.32076864
   7.66008884 10.58816739 10.38255180
   7.65654435 10.58793111 18.19628110
  -2.00927269 11.92791522 10.38255180
  -2.00770507 11.92472747 18.19628110
  -5.33879940 11.92689773 14.32076864
   5.33957664 11.92791522 10.38255180
   5.34114426 11.92472747 18.19628110
   2.01005016 11.92689773 14.32076864
   2.51410661  0.00000000  9.72963782
   2.49158832  0.00000000 17.54557631
   2.51632352  0.00000000 14.64005316
   2.41737147  4.18701021  9.72963782
   2.42863062  4.20651162 17.54557631
   2.41626302  4.18509031 14.64005316
  -1.25705331  2.17728020  9.72963782
  -1.24579416  2.15777878 17.54557631
  -1.25816176  2.17920009 14.64005316
   4.85874641  0.00000000 13.66863391
   4.84214540  0.00000000 10.71570343
   4.82394658  0.00000000 18.49194325
   1.24505179  2.15649296 13.66863391
   1.25335197  2.17086929 10.71570343
   1.26245138  2.18662993 18.49194325
  12.26832656  4.20779744 13.66863391
  12.27662663  4.19342131 10.71570343
  12.28572604  4.17766066 18.49194325
   9.86295661  0.00000000  9.72963782
   9.84043831  0.00000000 17.54557631
   9.86517395  0.00000000 14.64005316
   9.76622124  4.18701021  9.72963782
   9.77748039  4.20651162 17.54557631
   9.76511235  4.18509031 14.64005316
   6.09179647  2.17728020  9.72963782
   6.10305561  2.15777878 17.54557631
   6.09068801  2.17920009 14.64005316
  12.20759531  0.00000000 13.66863391
  12.19099518  0.00000000 10.71570343
  12.17279635  0.00000000 18.49194325
   8.59390135  2.15649296 13.66863391
   8.60220218  2.17086929 10.71570343
   8.61130159  2.18662993 18.49194325
   4.91947679  4.20779744 13.66863391
   4.92777685  4.19342131 10.71570343
   4.93687626  4.17766066 18.49194325
  -1.16031827  6.36429059  9.72963782
  -1.18283656  6.36429059 17.54557631
  -1.15810137  6.36429059 14.64005316
  -1.25705298 10.55130156  9.72963782
  -1.24579383 10.57080297 17.54557631
  -1.25816165 10.54938052 14.64005316
   9.76622124  8.54157098  9.72963782
   9.77748039  8.52206956 17.54557631
  -4.93258698  8.54349125 14.64005316
   1.18432152  6.36429059 13.66863391
   1.16772095  6.36429059 10.71570343
   1.14952213  6.36429059 18.49194325
  -2.42937321  8.52078412 13.66863391
  -2.42107336  8.53516026 10.71570343
  -2.41197395  8.55092090 18.49194325
  -6.10379809 10.57208841 13.66863391
  -6.09549759 10.55771152 10.71570343
  -6.08639818 10.54195088 18.49194325
   6.18853084  6.36429059  9.72963782
   6.16601255  6.36429059 17.54557631
   6.19074906  6.36429059 14.64005316
   6.09179592 10.55130156  9.72963782
   6.10305506 10.57080297 17.54557631
   6.09068768 10.54938052 14.64005316
   2.41737147  8.54157098  9.72963782
   2.42863062  8.52206956 17.54557631
   2.41626280  8.54349125 14.64005316
   8.53317042  6.36429059 13.66863391
   8.51657029  6.36429059 10.71570343
   8.49837147  6.36429059 18.49194325
   4.91947613  8.52078412 13.66863391
   4.92777707  8.53516026 10.71570343
   4.93687648  8.55092090 18.49194325
   1.24505256 10.57208841 13.66863391
   1.25335219 10.55771152 10.71570343
   1.26245160 10.54195088 18.49194325
 


--------------------------------------------------------------------------------------------------------


 use parallel FFT for orbitals z direction half grid
 k-point  1 :   0.0000 0.0000 0.0000  plane waves:   83586

 maximum and minimum number of plane-waves per node :      4185     4175

 maximum number of plane-waves:     83586
 maximum index in each direction: 
   IXMAX=   23   IYMAX=   23   IZMAX=   80
   IXMIN=  -23   IYMIN=  -23   IZMIN=    0


 real space projection operators:
  total allocation   :      13257.66 KBytes
  max/ min on nodes  :        749.73        545.52


 parallel 3D FFT for wavefunctions:
    minimum data exchange during FFTs selected (reduces bandwidth)
 parallel 3D FFT for charge:
    minimum data exchange during FFTs selected (reduces bandwidth)


 total amount of memory used by VASP MPI-rank0    74403. kBytes
=======================================================================

   base      :      30000. kBytes
   nonlr-proj:        916. kBytes
   fftplans  :      10983. kBytes
   grid      :      19058. kBytes
   one-center:         16. kBytes
   wavefun   :      13430. kBytes
 
     INWAV:  cpu time    0.0000: real time    0.0000
 Broyden mixing: mesh for mixing (old mesh)
   NGX = 47   NGY = 47   NGZ =161
  (NGX  =144   NGY  =144   NGZ  =500)
  gives a total of 355649 points

 initial charge density was supplied:
 charge density of overlapping atoms calculated
 number of electron     576.0000000 magnetization 
 keeping initial charge density in first step


--------------------------------------------------------------------------------------------------------


 Maximum index for non-local projection operator          148
 Maximum index for augmentation-charges          166 (set IRDMAX)


--------------------------------------------------------------------------------------------------------


 First call to EWALD:  gamma=   0.085
 Maximum number of real-space cells 4x 4x 1
 Maximum number of reciprocal cells 2x 2x 6

    FEWALD:  cpu time    0.0067: real time    0.0069


--------------------------------------- Iteration      1(   1)  ---------------------------------------


    POTLOK:  cpu time    0.2086: real time    0.2122
    SETDIJ:  cpu time    0.0068: real time    0.0071
     EDDAV:  cpu time    4.1645: real time    4.2113
       DOS:  cpu time    0.0003: real time    0.0003
    --------------------------------------------
      LOOP:  cpu time    4.3802: real time    4.4309

 eigenvalue-minimisations  :   980
 total energy-change (2. order) : 0.5539211E+04  (-0.2070301E+05)
 number of electron     576.0000000 magnetization 
 augmentation part      576.0000000 magnetization 

 DIPCOR: dipole corrections for dipol
 direction  3 min pos   345,
 dipolmoment           0.000000      0.000000      0.016420 electrons x Angstroem
 Tr[quadrupol]    -21524.012997

 energy correction for charged system         0.000000 eV
 dipol+quadrupol energy correction           -0.000003 eV
 added-field ion interaction         -0.893528 eV  (added to PSCEN)


 Free energy of the ion-electron system (eV)
  ---------------------------------------------------
  alpha Z        PSCENC =       125.40605723
  Ewald energy   TEWEN  =    378343.64983370
  -Hartree energ DENC   =   -404857.09085707
  -exchange      EXHF   =         0.00000000
  -V(xc)+E(xc)   XCENC  =      2359.62831035
  PAW double counting   =     25258.86228690   -25389.64497575
  entropy T*S    EENTRO =        -0.38961095
  eigenvalues    EBANDS =     -3221.08355962
  atomic energy  EATOM  =     32919.87321832
  Solvation  Ediel_sol  =         0.00000000
  ---------------------------------------------------
  free energy    TOTEN  =      5539.21070310 eV

  energy without entropy =     5539.60031404  energy(sigma->0) =     5539.40550857


--------------------------------------------------------------------------------------------------------




--------------------------------------- Iteration      1(   2)  ---------------------------------------


     EDDAV:  cpu time    4.7373: real time    4.7888
       DOS:  cpu time    0.0002: real time    0.0002
    --------------------------------------------
      LOOP:  cpu time    4.7375: real time    4.7890

 eigenvalue-minimisations  :  1152
 total energy-change (2. order) :-0.5188761E+04  (-0.4918448E+04)
 number of electron     576.0000000 magnetization 
 augmentation part      576.0000000 magnetization 

 DIPCOR: dipole corrections for dipol
 direction  3 min pos   345,
 dipolmoment           0.000000      0.000000      0.016420 electrons x Angstroem
 Tr[quadrupol]    -21524.012997

 energy correction for charged system         0.000000 eV
 dipol+quadrupol energy correction           -0.000003 eV
 added-field ion interaction         -0.893528 eV  (added to PSCEN)


 Free energy of the ion-electron system (eV)
  ---------------------------------------------------
  alpha Z        PSCENC =       125.40605723
  Ewald energy   TEWEN  =    378343.64983370
  -Hartree energ DENC   =   -404857.09085707
  -exchange      EXHF   =         0.00000000
  -V(xc)+E(xc)   XCENC  =      2359.62831035
  PAW double counting   =     25258.86228690   -25389.64497575
  entropy T*S    EENTRO =        -0.00000000
  eigenvalues    EBANDS =     -8410.23452816
  atomic energy  EATOM  =     32919.87321832
  Solvation  Ediel_sol  =         0.00000000
  ---------------------------------------------------
  free energy    TOTEN  =       350.44934550 eV

  energy without entropy =      350.44934550  energy(sigma->0) =      350.44934550


--------------------------------------------------------------------------------------------------------




--------------------------------------- Iteration      1(   3)  ---------------------------------------


     EDDAV:  cpu time    4.0046: real time    4.0479
       DOS:  cpu time    0.0002: real time    0.0002
    --------------------------------------------
      LOOP:  cpu time    4.0048: real time    4.0481

 eigenvalue-minimisations  :   936
 total energy-change (2. order) :-0.1458621E+04  (-0.1451757E+04)
 number of electron     576.0000000 magnetization 
 augmentation part      576.0000000 magnetization 

 DIPCOR: dipole corrections for dipol
 direction  3 min pos   345,
 dipolmoment           0.000000      0.000000      0.016420 electrons x Angstroem
 Tr[quadrupol]    -21524.012997

 energy correction for charged system         0.000000 eV
 dipol+quadrupol energy correction           -0.000003 eV
 added-field ion interaction         -0.893528 eV  (added to PSCEN)


 Free energy of the ion-electron system (eV)
  ---------------------------------------------------
  alpha Z        PSCENC =       125.40605723
  Ewald energy   TEWEN  =    378343.64983370
  -Hartree energ DENC   =   -404857.09085707
  -exchange      EXHF   =         0.00000000
  -V(xc)+E(xc)   XCENC  =      2359.62831035
  PAW double counting   =     25258.86228690   -25389.64497575
  entropy T*S    EENTRO =        -0.00000000
  eigenvalues    EBANDS =     -9868.85566093
  atomic energy  EATOM  =     32919.87321832
  Solvation  Ediel_sol  =         0.00000000
  ---------------------------------------------------
  free energy    TOTEN  =     -1108.17178727 eV

  energy without entropy =    -1108.17178727  energy(sigma->0) =    -1108.17178727


--------------------------------------------------------------------------------------------------------




--------------------------------------- Iteration      1(   4)  ---------------------------------------


     EDDAV:  cpu time    4.0573: real time    4.1037
       DOS:  cpu time    0.0002: real time    0.0002
    --------------------------------------------
      LOOP:  cpu time    4.0575: real time    4.1039

 eigenvalue-minimisations  :   952
 total energy-change (2. order) :-0.5587077E+02  (-0.5566626E+02)
 number of electron     576.0000000 magnetization 
 augmentation part      576.0000000 magnetization 

 DIPCOR: dipole corrections for dipol
 direction  3 min pos   345,
 dipolmoment           0.000000      0.000000      0.016420 electrons x Angstroem
 Tr[quadrupol]    -21524.012997

 energy correction for charged system         0.000000 eV
 dipol+quadrupol energy correction           -0.000003 eV
 added-field ion interaction         -0.893528 eV  (added to PSCEN)


 Free energy of the ion-electron system (eV)
  ---------------------------------------------------
  alpha Z        PSCENC =       125.40605723
  Ewald energy   TEWEN  =    378343.64983370
  -Hartree energ DENC   =   -404857.09085707
  -exchange      EXHF   =         0.00000000
  -V(xc)+E(xc)   XCENC  =      2359.62831035
  PAW double counting   =     25258.86228690   -25389.64497575
  entropy T*S    EENTRO =        -0.00000000
  eigenvalues    EBANDS =     -9924.72643147
  atomic energy  EATOM  =     32919.87321832
  Solvation  Ediel_sol  =         0.00000000
  ---------------------------------------------------
  free energy    TOTEN  =     -1164.04255781 eV

  energy without entropy =    -1164.04255781  energy(sigma->0) =    -1164.04255781


--------------------------------------------------------------------------------------------------------




--------------------------------------- Iteration      1(   5)  ---------------------------------------


     EDDAV:  cpu time    4.2436: real time    4.2901
       DOS:  cpu time    0.0002: real time    0.0002
    CHARGE:  cpu time    0.3374: real time    0.3398
    MIXING:  cpu time    0.0067: real time    0.0073
    --------------------------------------------
      LOOP:  cpu time    4.5880: real time    4.6375

 eigenvalue-minimisations  :  1008
 total energy-change (2. order) :-0.1157056E+01  (-0.1156572E+01)
 number of electron     576.0000340 magnetization 
 augmentation part       58.3700867 magnetization 

 DIPCOR: dipole corrections for dipol
 direction  3 min pos   345,
 dipolmoment           0.000000      0.000000      0.016420 electrons x Angstroem
 Tr[quadrupol]    -21524.012997

 energy correction for charged system         0.000000 eV
 dipol+quadrupol energy correction           -0.000003 eV
 added-field ion interaction         -0.893528 eV  (added to PSCEN)


 Broyden mixing:
  rms(total) = 0.59419E+01    rms(broyden)= 0.59298E+01
  rms(prec ) = 0.60213E+01
  weight for this iteration     100.00

 Free energy of the ion-electron system (eV)
  ---------------------------------------------------
  alpha Z        PSCENC =       125.40605723
  Ewald energy   TEWEN  =    378343.64983370
  -Hartree energ DENC   =   -404857.09085707
  -exchange      EXHF   =         0.00000000
  -V(xc)+E(xc)   XCENC  =      2359.62831035
  PAW double counting   =     25258.86228690   -25389.64497575
  entropy T*S    EENTRO =        -0.00000000
  eigenvalues    EBANDS =     -9925.88348764
  atomic energy  EATOM  =     32919.87321832
  Solvation  Ediel_sol  =         0.00000000
  ---------------------------------------------------
  free energy    TOTEN  =     -1165.19961397 eV

  energy without entropy =    -1165.19961397  energy(sigma->0) =    -1165.19961397


--------------------------------------------------------------------------------------------------------




--------------------------------------- Iteration      1(   6)  ---------------------------------------


    POTLOK:  cpu time    0.1997: real time    0.2020
    SETDIJ:  cpu time    0.0060: real time    0.0060
    EDDIAG:  cpu time    0.6118: real time    0.6192
  RMM-DIIS:  cpu time    2.9397: real time    2.9767
    ORTHCH:  cpu time    0.0763: real time    0.0771
       DOS:  cpu time    0.0003: real time    0.0003
    CHARGE:  cpu time    0.3253: real time    0.3279
    MIXING:  cpu time    0.0063: real time    0.0067
    --------------------------------------------
      LOOP:  cpu time    4.1654: real time    4.2158

 eigenvalue-minimisations  :  1011
 total energy-change (2. order) : 0.9791575E+02  (-0.3582921E+02)
 number of electron     576.0000200 magnetization 
 augmentation part       51.4515249 magnetization 

 DIPCOR: dipole corrections for dipol
 direction  3 min pos   370,
 dipolmoment           0.000000      0.000000      2.497159 electrons x Angstroem
 Tr[quadrupol]    -21518.797771

 energy correction for charged system         0.000000 eV
 dipol+quadrupol energy correction           -0.061292 eV
 added-field ion interaction        -66.330193 eV  (added to PSCEN)


 Broyden mixing:
  rms(total) = 0.22348E+01    rms(broyden)= 0.22319E+01
  rms(prec ) = 0.22578E+01
  weight for this iteration     100.00

 eigenvalues of (default mixing * dielectric matrix)
  average eigenvalue GAMMA=   1.0439
  1.0439

 Free energy of the ion-electron system (eV)
  ---------------------------------------------------
  alpha Z        PSCENC =        59.90810203
  Ewald energy   TEWEN  =    378343.64983370
  -Hartree energ DENC   =   -406309.92494094
  -exchange      EXHF   =         0.00000000
  -V(xc)+E(xc)   XCENC  =      2440.61103126
  PAW double counting   =     31999.08446588   -32152.23637061
  entropy T*S    EENTRO =        -0.00000000
  eigenvalues    EBANDS =     -8368.24920013
  atomic energy  EATOM  =     32919.87321832
  Solvation  Ediel_sol  =         0.00000000
  ---------------------------------------------------
  free energy    TOTEN  =     -1067.28386049 eV

  energy without entropy =    -1067.28386049  energy(sigma->0) =    -1067.28386049


--------------------------------------------------------------------------------------------------------




--------------------------------------- Iteration      1(   7)  ---------------------------------------


    POTLOK:  cpu time    0.2007: real time    0.2026
    SETDIJ:  cpu time    0.0059: real time    0.0060
    EDDIAG:  cpu time    0.6048: real time    0.6119
  RMM-DIIS:  cpu time    2.9714: real time    3.0075
    ORTHCH:  cpu time    0.0760: real time    0.0768
       DOS:  cpu time    0.0004: real time    0.0004
    CHARGE:  cpu time    0.3258: real time    0.3280
    MIXING:  cpu time    0.0059: real time    0.0063
    --------------------------------------------
      LOOP:  cpu time    4.1910: real time    4.2394

 eigenvalue-minimisations  :  1010
 total energy-change (2. order) : 0.5556786E+01  (-0.1922250E+01)
 number of electron     576.0000176 magnetization 
 augmentation part       50.2593914 magnetization 

 DIPCOR: dipole corrections for dipol
 direction  3 min pos   380,
 dipolmoment           0.000000      0.000000      4.370220 electrons x Angstroem
 Tr[quadrupol]    -21522.231162

 energy correction for charged system         0.000000 eV
 dipol+quadrupol energy correction           -0.187723 eV
 added-field ion interaction        -67.388027 eV  (added to PSCEN)


 Broyden mixing:
  rms(total) = 0.14399E+01    rms(broyden)= 0.14393E+01
  rms(prec ) = 0.14554E+01
  weight for this iteration     100.00

 eigenvalues of (default mixing * dielectric matrix)
  average eigenvalue GAMMA=   1.7664
  1.2015  2.3313

 Free energy of the ion-electron system (eV)
  ---------------------------------------------------
  alpha Z        PSCENC =        58.72383727
  Ewald energy   TEWEN  =    378343.64983370
  -Hartree energ DENC   =   -406688.10193355
  -exchange      EXHF   =         0.00000000
  -V(xc)+E(xc)   XCENC  =      2459.11549214
  PAW double counting   =     35792.98800993   -35947.30709167
  entropy T*S    EENTRO =        -0.00000000
  eigenvalues    EBANDS =     -8000.66844059
  atomic energy  EATOM  =     32919.87321832
  Solvation  Ediel_sol  =         0.00000000
  ---------------------------------------------------
  free energy    TOTEN  =     -1061.72707446 eV

  energy without entropy =    -1061.72707446  energy(sigma->0) =    -1061.72707446


--------------------------------------------------------------------------------------------------------




--------------------------------------- Iteration      1(   8)  ---------------------------------------


    POTLOK:  cpu time    0.1996: real time    0.2014
    SETDIJ:  cpu time    0.0059: real time    0.0060
    EDDIAG:  cpu time    0.6044: real time    0.6113
  RMM-DIIS:  cpu time    2.9724: real time    3.0088
    ORTHCH:  cpu time    0.0756: real time    0.0764
       DOS:  cpu time    0.0004: real time    0.0004
    CHARGE:  cpu time    0.3323: real time    0.3347
    MIXING:  cpu time    0.0063: real time    0.0063
    --------------------------------------------
      LOOP:  cpu time    4.1969: real time    4.2452

 eigenvalue-minimisations  :  1010
 total energy-change (2. order) : 0.2848114E+01  (-0.5731574E+00)
 number of electron     576.0000147 magnetization 
 augmentation part       49.9941677 magnetization 

 DIPCOR: dipole corrections for dipol
 direction  3 min pos   384,
 dipolmoment           0.000000      0.000000      7.719764 electrons x Angstroem
 Tr[quadrupol]    -21526.794381

 energy correction for charged system         0.000000 eV
 dipol+quadrupol energy correction           -0.585759 eV
 added-field ion interaction        -84.630624 eV  (added to PSCEN)


 Broyden mixing:
  rms(total) = 0.44239E+00    rms(broyden)= 0.43860E+00
  rms(prec ) = 0.48115E+00
  weight for this iteration     100.00

 eigenvalues of (default mixing * dielectric matrix)
  average eigenvalue GAMMA=   1.2036
  2.3284  1.2012  0.0813

 Free energy of the ion-electron system (eV)
  ---------------------------------------------------
  alpha Z        PSCENC =        41.08320433
  Ewald energy   TEWEN  =    378343.64983370
  -Hartree energ DENC   =   -406976.84236943
  -exchange      EXHF   =         0.00000000
  -V(xc)+E(xc)   XCENC  =      2470.08143296
  PAW double counting   =     40468.99309446   -40619.91983926
  entropy T*S    EENTRO =        -0.45699924
  eigenvalues    EBANDS =     -7705.34053598
  atomic energy  EATOM  =     32919.87321832
  Solvation  Ediel_sol  =         0.00000000
  ---------------------------------------------------
  free energy    TOTEN  =     -1058.87896015 eV

  energy without entropy =    -1058.42196091  energy(sigma->0) =    -1058.65046053


--------------------------------------------------------------------------------------------------------




--------------------------------------- Iteration      1(   9)  ---------------------------------------


    POTLOK:  cpu time    0.1992: real time    0.2012
    SETDIJ:  cpu time    0.0060: real time    0.0060
    EDDIAG:  cpu time    0.6020: real time    0.6093
  RMM-DIIS:  cpu time    2.9922: real time    3.0290
    ORTHCH:  cpu time    0.0763: real time    0.0771
       DOS:  cpu time    0.0004: real time    0.0004
    CHARGE:  cpu time    0.3311: real time    0.3334
    MIXING:  cpu time    0.0065: real time    0.0066
    --------------------------------------------
      LOOP:  cpu time    4.2137: real time    4.2631

 eigenvalue-minimisations  :  1006
 total energy-change (2. order) : 0.5377677E+00  (-0.2613998E-01)
 number of electron     576.0000155 magnetization 
 augmentation part       50.0991608 magnetization 

 DIPCOR: dipole corrections for dipol
 direction  3 min pos   399,
 dipolmoment           0.000000      0.000000      7.305255 electrons x Angstroem
 Tr[quadrupol]    -21548.357904

 energy correction for charged system         0.000000 eV
 dipol+quadrupol energy correction           -0.524544 eV
 added-field ion interaction         42.011066 eV  (added to PSCEN)


 Broyden mixing:
  rms(total) = 0.30529E+00    rms(broyden)= 0.30526E+00
  rms(prec ) = 0.33284E+00
  weight for this iteration     100.00

 eigenvalues of (default mixing * dielectric matrix)
  average eigenvalue GAMMA=   1.2638
  2.3610  1.0992  1.0992  0.4958

 Free energy of the ion-electron system (eV)
  ---------------------------------------------------
  alpha Z        PSCENC =       167.78610945
  Ewald energy   TEWEN  =    378343.64983370
  -Hartree energ DENC   =   -406965.69084876
  -exchange      EXHF   =         0.00000000
  -V(xc)+E(xc)   XCENC  =      2470.10585917
  PAW double counting   =     40439.50307024   -40590.44614898
  entropy T*S    EENTRO =        -0.30856993
  eigenvalues    EBANDS =     -7842.81371568
  atomic energy  EATOM  =     32919.87321832
  Solvation  Ediel_sol  =         0.00000000
  ---------------------------------------------------
  free energy    TOTEN  =     -1058.34119248 eV

  energy without entropy =    -1058.03262255  energy(sigma->0) =    -1058.18690752


--------------------------------------------------------------------------------------------------------




--------------------------------------- Iteration      1(  10)  ---------------------------------------


    POTLOK:  cpu time    0.1998: real time    0.2021
    SETDIJ:  cpu time    0.0060: real time    0.0060
    EDDIAG:  cpu time    0.6035: real time    0.6102
  RMM-DIIS:  cpu time    2.8911: real time    2.9266
    ORTHCH:  cpu time    0.0758: real time    0.0766
       DOS:  cpu time    0.0004: real time    0.0004
    CHARGE:  cpu time    0.3293: real time    0.3319
    MIXING:  cpu time    0.0067: real time    0.0067
    --------------------------------------------
      LOOP:  cpu time    4.1125: real time    4.1605

 eigenvalue-minimisations  :   995
 total energy-change (2. order) : 0.3821993E+00  (-0.6128204E-01)
 number of electron     576.0000176 magnetization 
 augmentation part       50.2753531 magnetization 

 DIPCOR: dipole corrections for dipol
 direction  3 min pos   407,
 dipolmoment           0.000000      0.000000      6.536952 electrons x Angstroem
 Tr[quadrupol]    -21556.500990

 energy correction for charged system         0.000000 eV
 dipol+quadrupol energy correction           -0.420012 eV
 added-field ion interaction         95.862761 eV  (added to PSCEN)


 Broyden mixing:
  rms(total) = 0.15107E+00    rms(broyden)= 0.14618E+00
  rms(prec ) = 0.16957E+00
  weight for this iteration     100.00

 eigenvalues of (default mixing * dielectric matrix)
  average eigenvalue GAMMA=   1.2431
  2.4704  1.2302  1.2302  0.6422  0.6422

 Free energy of the ion-electron system (eV)
  ---------------------------------------------------
  alpha Z        PSCENC =       221.74233627
  Ewald energy   TEWEN  =    378343.64983370
  -Hartree energ DENC   =   -406986.88156262
  -exchange      EXHF   =         0.00000000
  -V(xc)+E(xc)   XCENC  =      2472.39881068
  PAW double counting   =     40476.52581302   -40627.95689808
  entropy T*S    EENTRO =        -0.09364047
  eigenvalues    EBANDS =     -7877.21690400
  atomic energy  EATOM  =     32919.87321832
  Solvation  Ediel_sol  =         0.00000000
  ---------------------------------------------------
  free energy    TOTEN  =     -1057.95899318 eV

  energy without entropy =    -1057.86535271  energy(sigma->0) =    -1057.91217295


--------------------------------------------------------------------------------------------------------




--------------------------------------- Iteration      1(  11)  ---------------------------------------


    POTLOK:  cpu time    0.1995: real time    0.2013
    SETDIJ:  cpu time    0.0059: real time    0.0060
    EDDIAG:  cpu time    0.6025: real time    0.6094
  RMM-DIIS:  cpu time    2.9022: real time    2.9374
    ORTHCH:  cpu time    0.0760: real time    0.0768
       DOS:  cpu time    0.0004: real time    0.0004
    CHARGE:  cpu time    0.3366: real time    0.3393
    MIXING:  cpu time    0.0076: real time    0.0077
    --------------------------------------------
      LOOP:  cpu time    4.1307: real time    4.1782

 eigenvalue-minimisations  :   979
 total energy-change (2. order) :-0.1509554E+00  (-0.9250425E-02)
 number of electron     576.0000153 magnetization 
 augmentation part       49.8720768 magnetization 

 DIPCOR: dipole corrections for dipol
 direction  3 min pos   398,
 dipolmoment           0.000000      0.000000      7.033059 electrons x Angstroem
 Tr[quadrupol]    -21546.345608

 energy correction for charged system         0.000000 eV
 dipol+quadrupol energy correction           -0.486183 eV
 added-field ion interaction         32.609177 eV  (added to PSCEN)


 Broyden mixing:
  rms(total) = 0.21801E+00    rms(broyden)= 0.21609E+00
  rms(prec ) = 0.24707E+00
  weight for this iteration     100.00

 eigenvalues of (default mixing * dielectric matrix)
  average eigenvalue GAMMA=   1.2999
  2.3051  2.3051  1.1315  1.1315  0.4631  0.4631

 Free energy of the ion-electron system (eV)
  ---------------------------------------------------
  alpha Z        PSCENC =       158.42258177
  Ewald energy   TEWEN  =    378343.64983370
  -Hartree energ DENC   =   -407023.41696336
  -exchange      EXHF   =         0.00000000
  -V(xc)+E(xc)   XCENC  =      2473.56282300
  PAW double counting   =     40540.07670213   -40691.59012147
  entropy T*S    EENTRO =        -0.31312684
  eigenvalues    EBANDS =     -7778.37489586
  atomic energy  EATOM  =     32919.87321832
  Solvation  Ediel_sol  =         0.00000000
  ---------------------------------------------------
  free energy    TOTEN  =     -1058.10994862 eV

  energy without entropy =    -1057.79682178  energy(sigma->0) =    -1057.95338520


--------------------------------------------------------------------------------------------------------




--------------------------------------- Iteration      1(  12)  ---------------------------------------


    POTLOK:  cpu time    0.1989: real time    0.2014
    SETDIJ:  cpu time    0.0059: real time    0.0060
    EDDIAG:  cpu time    0.6015: real time    0.6092
  RMM-DIIS:  cpu time    2.8740: real time    2.9141
    ORTHCH:  cpu time    0.0755: real time    0.0763
       DOS:  cpu time    0.0004: real time    0.0004
    CHARGE:  cpu time    0.3361: real time    0.3390
    MIXING:  cpu time    0.0072: real time    0.0073
    --------------------------------------------
      LOOP:  cpu time    4.0995: real time    4.1535

 eigenvalue-minimisations  :   971
 total energy-change (2. order) : 0.1312963E+00  (-0.9151954E-02)
 number of electron     576.0000176 magnetization 
 augmentation part       50.2699070 magnetization 

 DIPCOR: dipole corrections for dipol
 direction  3 min pos   392,
 dipolmoment           0.000000      0.000000      6.632343 electrons x Angstroem
 Tr[quadrupol]    -21537.432343

 energy correction for charged system         0.000000 eV
 dipol+quadrupol energy correction           -0.432360 eV
 added-field ion interaction        -13.589034 eV  (added to PSCEN)


 Broyden mixing:
  rms(total) = 0.12956E+00    rms(broyden)= 0.12626E+00
  rms(prec ) = 0.14721E+00
  weight for this iteration     100.00

 eigenvalues of (default mixing * dielectric matrix)
  average eigenvalue GAMMA=   1.2593
  2.4066  2.4066  1.1347  0.9995  0.9995  0.4342  0.4342

 Free energy of the ion-electron system (eV)
  ---------------------------------------------------
  alpha Z        PSCENC =       112.27819408
  Ewald energy   TEWEN  =    378343.64983370
  -Hartree energ DENC   =   -406994.78443954
  -exchange      EXHF   =         0.00000000
  -V(xc)+E(xc)   XCENC  =      2472.58913599
  PAW double counting   =     40389.14556227   -40540.36022236
  entropy T*S    EENTRO =        -0.11902544
  eigenvalues    EBANDS =     -7760.25090930
  atomic energy  EATOM  =     32919.87321832
  Solvation  Ediel_sol  =         0.00000000
  ---------------------------------------------------
  free energy    TOTEN  =     -1057.97865229 eV

  energy without entropy =    -1057.85962685  energy(sigma->0) =    -1057.91913957


--------------------------------------------------------------------------------------------------------




--------------------------------------- Iteration      1(  13)  ---------------------------------------


    POTLOK:  cpu time    0.1990: real time    0.2011
    SETDIJ:  cpu time    0.0060: real time    0.0060
    EDDIAG:  cpu time    0.6050: real time    0.6131
  RMM-DIIS:  cpu time    2.9743: real time    3.0152
    ORTHCH:  cpu time    0.0760: real time    0.0769
       DOS:  cpu time    0.0004: real time    0.0004
    CHARGE:  cpu time    0.3355: real time    0.3381
    MIXING:  cpu time    0.0073: real time    0.0074
    --------------------------------------------
      LOOP:  cpu time    4.2035: real time    4.2581

 eigenvalue-minimisations  :   991
 total energy-change (2. order) : 0.3800586E-01  (-0.1267983E-02)
 number of electron     576.0000165 magnetization 
 augmentation part       50.0930142 magnetization 

 DIPCOR: dipole corrections for dipol
 direction  3 min pos   390,
 dipolmoment           0.000000      0.000000      6.794411 electrons x Angstroem
 Tr[quadrupol]    -21535.022646

 energy correction for charged system         0.000000 eV
 dipol+quadrupol energy correction           -0.453748 eV
 added-field ion interaction        -29.062350 eV  (added to PSCEN)


 Broyden mixing:
  rms(total) = 0.28502E-01    rms(broyden)= 0.26538E-01
  rms(prec ) = 0.30544E-01
  weight for this iteration     100.00

 eigenvalues of (default mixing * dielectric matrix)
  average eigenvalue GAMMA=   1.3407
  2.5170  2.5170  1.8002  1.0760  1.0760  0.8679  0.4357  0.4357

 Free energy of the ion-electron system (eV)
  ---------------------------------------------------
  alpha Z        PSCENC =        96.78348901
  Ewald energy   TEWEN  =    378343.64983370
  -Hartree energ DENC   =   -407011.85243288
  -exchange      EXHF   =         0.00000000
  -V(xc)+E(xc)   XCENC  =      2473.18522042
  PAW double counting   =     40416.39303641   -40567.70567305
  entropy T*S    EENTRO =        -0.27039988
  eigenvalues    EBANDS =     -7727.99693846
  atomic energy  EATOM  =     32919.87321832
  Solvation  Ediel_sol  =         0.00000000
  ---------------------------------------------------
  free energy    TOTEN  =     -1057.94064643 eV

  energy without entropy =    -1057.67024655  energy(sigma->0) =    -1057.80544649


--------------------------------------------------------------------------------------------------------




--------------------------------------- Iteration      1(  14)  ---------------------------------------


    POTLOK:  cpu time    0.1986: real time    0.2008
    SETDIJ:  cpu time    0.0060: real time    0.0060
    EDDIAG:  cpu time    0.6026: real time    0.6103
  RMM-DIIS:  cpu time    2.9454: real time    2.9862
    ORTHCH:  cpu time    0.0763: real time    0.0772
       DOS:  cpu time    0.0004: real time    0.0004
    CHARGE:  cpu time    0.3292: real time    0.3317
    MIXING:  cpu time    0.0078: real time    0.0079
    --------------------------------------------
      LOOP:  cpu time    4.1663: real time    4.2204

 eigenvalue-minimisations  :   990
 total energy-change (2. order) :-0.8114931E-02  (-0.2400974E-03)
 number of electron     576.0000169 magnetization 
 augmentation part       50.1409942 magnetization 

 DIPCOR: dipole corrections for dipol
 direction  3 min pos   389,
 dipolmoment           0.000000      0.000000      6.721253 electrons x Angstroem
 Tr[quadrupol]    -21533.566289

 energy correction for charged system         0.000000 eV
 dipol+quadrupol energy correction           -0.444029 eV
 added-field ion interaction        -36.238540 eV  (added to PSCEN)


 Broyden mixing:
  rms(total) = 0.30368E-01    rms(broyden)= 0.30066E-01
  rms(prec ) = 0.35461E-01
  weight for this iteration     100.00

 eigenvalues of (default mixing * dielectric matrix)
  average eigenvalue GAMMA=   1.3303
  2.7415  2.5975  1.4425  1.4425  0.9535  0.9535  0.9675  0.4368  0.4368

 Free energy of the ion-electron system (eV)
  ---------------------------------------------------
  alpha Z        PSCENC =        89.61701834
  Ewald energy   TEWEN  =    378343.64983370
  -Hartree energ DENC   =   -407012.58221132
  -exchange      EXHF   =         0.00000000
  -V(xc)+E(xc)   XCENC  =      2473.24387850
  PAW double counting   =     40406.72054970   -40558.04931913
  entropy T*S    EENTRO =        -0.22649627
  eigenvalues    EBANDS =     -7720.19523320
  atomic energy  EATOM  =     32919.87321832
  Solvation  Ediel_sol  =         0.00000000
  ---------------------------------------------------
  free energy    TOTEN  =     -1057.94876136 eV

  energy without entropy =    -1057.72226509  energy(sigma->0) =    -1057.83551322


--------------------------------------------------------------------------------------------------------




--------------------------------------- Iteration      1(  15)  ---------------------------------------


    POTLOK:  cpu time    0.1990: real time    0.2013
    SETDIJ:  cpu time    0.0060: real time    0.0060
    EDDIAG:  cpu time    0.6014: real time    0.6088
  RMM-DIIS:  cpu time    2.9667: real time    3.0083
    ORTHCH:  cpu time    0.0756: real time    0.0764
       DOS:  cpu time    0.0003: real time    0.0003
    CHARGE:  cpu time    0.3366: real time    0.3395
    MIXING:  cpu time    0.0082: real time    0.0083
    --------------------------------------------
      LOOP:  cpu time    4.1938: real time    4.2490

 eigenvalue-minimisations  :   993
 total energy-change (2. order) : 0.1154444E-02  (-0.1034290E-03)
 number of electron     576.0000166 magnetization 
 augmentation part       50.1041166 magnetization 

 DIPCOR: dipole corrections for dipol
 direction  3 min pos   389,
 dipolmoment           0.000000      0.000000      6.746945 electrons x Angstroem
 Tr[quadrupol]    -21533.605545

 energy correction for charged system         0.000000 eV
 dipol+quadrupol energy correction           -0.447430 eV
 added-field ion interaction        -36.377061 eV  (added to PSCEN)


 Broyden mixing:
  rms(total) = 0.10960E-01    rms(broyden)= 0.10277E-01
  rms(prec ) = 0.12114E-01
  weight for this iteration     100.00

 eigenvalues of (default mixing * dielectric matrix)
  average eigenvalue GAMMA=   1.3657
  2.9288  2.5084  1.7247  1.7247  1.0720  1.0303  1.0303  0.7615  0.4379  0.4379

 Free energy of the ion-electron system (eV)
  ---------------------------------------------------
  alpha Z        PSCENC =        89.47509607
  Ewald energy   TEWEN  =    378343.64983370
  -Hartree energ DENC   =   -407014.12195952
  -exchange      EXHF   =         0.00000000
  -V(xc)+E(xc)   XCENC  =      2473.19895754
  PAW double counting   =     40401.45167978   -40552.75158739
  entropy T*S    EENTRO =        -0.25993546
  eigenvalues    EBANDS =     -7718.46290995
  atomic energy  EATOM  =     32919.87321832
  Solvation  Ediel_sol  =         0.00000000
  ---------------------------------------------------
  free energy    TOTEN  =     -1057.94760691 eV

  energy without entropy =    -1057.68767145  energy(sigma->0) =    -1057.81763918


--------------------------------------------------------------------------------------------------------




--------------------------------------- Iteration      1(  16)  ---------------------------------------


    POTLOK:  cpu time    0.1999: real time    0.2020
    SETDIJ:  cpu time    0.0060: real time    0.0060
    EDDIAG:  cpu time    0.6047: real time    0.6126
  RMM-DIIS:  cpu time    2.9212: real time    2.9606
    ORTHCH:  cpu time    0.0754: real time    0.0767
       DOS:  cpu time    0.0004: real time    0.0004
    CHARGE:  cpu time    0.3338: real time    0.3363
    MIXING:  cpu time    0.0090: real time    0.0091
    --------------------------------------------
      LOOP:  cpu time    4.1504: real time    4.2038

 eigenvalue-minimisations  :   980
 total energy-change (2. order) :-0.1885231E-02  (-0.3806290E-04)
 number of electron     576.0000168 magnetization 
 augmentation part       50.1310603 magnetization 

 DIPCOR: dipole corrections for dipol
 direction  3 min pos   389,
 dipolmoment           0.000000      0.000000      6.706573 electrons x Angstroem
 Tr[quadrupol]    -21533.523505

 energy correction for charged system         0.000000 eV
 dipol+quadrupol energy correction           -0.442092 eV
 added-field ion interaction        -36.159391 eV  (added to PSCEN)


 Broyden mixing:
  rms(total) = 0.13527E-01    rms(broyden)= 0.13356E-01
  rms(prec ) = 0.15595E-01
  weight for this iteration     100.00

 eigenvalues of (default mixing * dielectric matrix)
  average eigenvalue GAMMA=   1.4509
  3.5284  2.5347  2.3785  1.6076  1.1642  1.1440  1.0107  1.0107  0.7052  0.4381
  0.4381

 Free energy of the ion-electron system (eV)
  ---------------------------------------------------
  alpha Z        PSCENC =        89.69810487
  Ewald energy   TEWEN  =    378343.64983370
  -Hartree energ DENC   =   -407013.70251855
  -exchange      EXHF   =         0.00000000
  -V(xc)+E(xc)   XCENC  =      2473.17112862
  PAW double counting   =     40402.34720825   -40553.63591598
  entropy T*S    EENTRO =        -0.24155635
  eigenvalues    EBANDS =     -7719.10899501
  atomic energy  EATOM  =     32919.87321832
  Solvation  Ediel_sol  =         0.00000000
  ---------------------------------------------------
  free energy    TOTEN  =     -1057.94949215 eV

  energy without entropy =    -1057.70793579  energy(sigma->0) =    -1057.82871397


--------------------------------------------------------------------------------------------------------




--------------------------------------- Iteration      1(  17)  ---------------------------------------


    POTLOK:  cpu time    0.1997: real time    0.2017
    SETDIJ:  cpu time    0.0059: real time    0.0060
    EDDIAG:  cpu time    0.6045: real time    0.6123
  RMM-DIIS:  cpu time    2.8633: real time    2.9029
    ORTHCH:  cpu time    0.0769: real time    0.0777
       DOS:  cpu time    0.0004: real time    0.0004
    CHARGE:  cpu time    0.3284: real time    0.3310
    MIXING:  cpu time    0.0090: real time    0.0091
    --------------------------------------------
      LOOP:  cpu time    4.0881: real time    4.1411

 eigenvalue-minimisations  :   976
 total energy-change (2. order) :-0.7076495E-03  (-0.2932324E-04)
 number of electron     576.0000167 magnetization 
 augmentation part       50.1156547 magnetization 

 DIPCOR: dipole corrections for dipol
[...]
      7.16374      6.36429     10.11744         0.000278      0.000000     -0.000646
      7.14196      6.36429     17.92846         0.000941      0.000000      0.000144
      6.05002     10.47893      8.75875         0.000109      0.000189      0.002527
      6.07050     10.51441     16.56836         0.000206      0.000357      0.001046
      5.60419      9.70675     10.11744        -0.000139     -0.000240     -0.000646
      5.61508      9.72561     17.92846        -0.000471     -0.000815      0.000144
      2.37559      8.61394      8.75875         0.000109     -0.000189      0.002527
      2.39607      8.57847     16.56836         0.000206     -0.000357      0.001046
      1.92977      9.38612     10.11744        -0.000139      0.000240     -0.000646
      1.94066      9.36726     17.92846        -0.000471      0.000815      0.000144
      8.46807      6.36429     12.69205        -0.000610      0.000000      0.001274
      7.56183      6.36429     14.04833         0.001586      0.000000      0.000527
      4.95203      8.57716     12.69205         0.000305      0.000528      0.001274
      5.40515      9.36199     14.04833        -0.000793     -0.001374      0.000527
      1.27760     10.51571     12.69205         0.000305     -0.000528      0.001274
      1.73072      9.73088     14.04833        -0.000793      0.001374      0.000527
     12.99840      1.33991     14.32077         0.000988     -0.000907     -0.000237
     11.33451      4.22388     10.38255        -0.000572     -0.000024      0.000230
     11.33097      4.22364     18.19628        -0.000455     -0.000224      0.000094
      9.32397      7.70420     14.32077         0.000988     -0.000907     -0.000237
      7.66009     10.58817     10.38255        -0.000572     -0.000024      0.000230
      7.65654     10.58793     18.19628        -0.000455     -0.000224      0.000094
     -2.00927     11.92792     10.38255         0.000266     -0.000507      0.000230
     -2.00771     11.92473     18.19628         0.000034     -0.000506      0.000094
     -5.33880     11.92690     14.32077        -0.001279      0.000403     -0.000237
      5.33958     11.92792     10.38255         0.000266     -0.000507      0.000230
      5.34114     11.92473     18.19628         0.000034     -0.000506      0.000094
      2.01005     11.92690     14.32077        -0.001279      0.000403     -0.000237
      2.51411      0.00000      9.72964        -0.001151      0.000000     -0.003649
      2.49159      0.00000     17.54558         0.001293      0.000000      0.000223
      2.51632      0.00000     14.64005        -0.000515      0.000000     -0.000860
      2.41737      4.18701      9.72964         0.000576      0.000997     -0.003649
      2.42863      4.20651     17.54558        -0.000646     -0.001119      0.000223
      2.41626      4.18509     14.64005         0.000258      0.000446     -0.000860
     -1.25705      2.17728      9.72964         0.000576     -0.000997     -0.003649
     -1.24579      2.15778     17.54558        -0.000646      0.001119      0.000223
     -1.25816      2.17920     14.64005         0.000258     -0.000446     -0.000860
      4.85875      0.00000     13.66863        -0.001173     -0.000000     -0.001636
      4.84215      0.00000     10.71570        -0.001440      0.000000     -0.001666
      4.82395      0.00000     18.49194        -0.000660      0.000000      0.002543
      1.24505      2.15649     13.66863         0.000587      0.001016     -0.001636
      1.25335      2.17087     10.71570         0.000720      0.001247     -0.001666
      1.26245      2.18663     18.49194         0.000330      0.000572      0.002543
     12.26833      4.20780     13.66863         0.000587     -0.001016     -0.001636
     12.27663      4.19342     10.71570         0.000720     -0.001247     -0.001666
     12.28573      4.17766     18.49194         0.000330     -0.000572      0.002543
      9.86296      0.00000      9.72964        -0.001151      0.000000     -0.003649
      9.84044      0.00000     17.54558         0.001293      0.000000      0.000223
      9.86517      0.00000     14.64005        -0.000515      0.000000     -0.000860
      9.76622      4.18701      9.72964         0.000576      0.000997     -0.003649
      9.77748      4.20651     17.54558        -0.000646     -0.001119      0.000223
      9.76511      4.18509     14.64005         0.000258      0.000446     -0.000860
      6.09180      2.17728      9.72964         0.000576     -0.000997     -0.003649
      6.10306      2.15778     17.54558        -0.000646      0.001119      0.000223
      6.09069      2.17920     14.64005         0.000258     -0.000446     -0.000860
     12.20760      0.00000     13.66863        -0.001173      0.000000     -0.001636
     12.19100      0.00000     10.71570        -0.001440      0.000000     -0.001666
     12.17280      0.00000     18.49194        -0.000660      0.000000      0.002543
      8.59390      2.15649     13.66863         0.000587      0.001016     -0.001636
      8.60220      2.17087     10.71570         0.000720      0.001247     -0.001666
      8.61130      2.18663     18.49194         0.000330      0.000572      0.002543
      4.91948      4.20780     13.66863         0.000587     -0.001016     -0.001636
      4.92778      4.19342     10.71570         0.000720     -0.001247     -0.001666
      4.93688      4.17766     18.49194         0.000330     -0.000572      0.002543
     -1.16032      6.36429      9.72964        -0.001151      0.000000     -0.003649
     -1.18284      6.36429     17.54558         0.001293      0.000000      0.000223
     -1.15810      6.36429     14.64005        -0.000515      0.000000     -0.000860
     -1.25705     10.55130      9.72964         0.000576      0.000997     -0.003649
     -1.24579     10.57080     17.54558        -0.000646     -0.001119      0.000223
     -1.25816     10.54938     14.64005         0.000258      0.000446     -0.000860
      9.76622      8.54157      9.72964         0.000576     -0.000997     -0.003649
      9.77748      8.52207     17.54558        -0.000646      0.001119      0.000223
     -4.93259      8.54349     14.64005         0.000258     -0.000446     -0.000860
      1.18432      6.36429     13.66863        -0.001173      0.000000     -0.001636
      1.16772      6.36429     10.71570        -0.001440     -0.000000     -0.001666
      1.14952      6.36429     18.49194        -0.000660      0.000000      0.002543
     -2.42937      8.52078     13.66863         0.000587      0.001016     -0.001636
     -2.42107      8.53516     10.71570         0.000720      0.001247     -0.001666
     -2.41197      8.55092     18.49194         0.000330      0.000572      0.002543
     -6.10380     10.57209     13.66863         0.000587     -0.001016     -0.001636
     -6.09550     10.55771     10.71570         0.000720     -0.001247     -0.001666
     -6.08640     10.54195     18.49194         0.000330     -0.000572      0.002543
      6.18853      6.36429      9.72964        -0.001151      0.000000     -0.003649
      6.16601      6.36429     17.54558         0.001293      0.000000      0.000223
      6.19075      6.36429     14.64005        -0.000515      0.000000     -0.000860
      6.09180     10.55130      9.72964         0.000576      0.000997     -0.003649
      6.10306     10.57080     17.54558        -0.000646     -0.001119      0.000223
      6.09069     10.54938     14.64005         0.000258      0.000446     -0.000860
      2.41737      8.54157      9.72964         0.000576     -0.000997     -0.003649
      2.42863      8.52207     17.54558        -0.000646      0.001119      0.000223
      2.41626      8.54349     14.64005         0.000258     -0.000446     -0.000860
      8.53317      6.36429     13.66863        -0.001173      0.000000     -0.001636
      8.51657      6.36429     10.71570        -0.001440     -0.000000     -0.001666
      8.49837      6.36429     18.49194        -0.000660      0.000000      0.002543
      4.91948      8.52078     13.66863         0.000587      0.001016     -0.001636
      4.92778      8.53516     10.71570         0.000720      0.001247     -0.001666
      4.93688      8.55092     18.49194         0.000330      0.000572      0.002543
      1.24505     10.57209     13.66863         0.000587     -0.001016     -0.001636
      1.25335     10.55771     10.71570         0.000720     -0.001247     -0.001666
      1.26245     10.54195     18.49194         0.000330     -0.000572      0.002543
 -----------------------------------------------------------------------------------
    total drift:                                0.008681     -0.001886      0.220309


--------------------------------------------------------------------------------------------------------



  FREE ENERGIE OF THE ION-ELECTRON SYSTEM (eV)
  ---------------------------------------------------
  free  energy   TOTEN  =     -1063.53425904 eV

  energy  without entropy=    -1063.28286817  energy(sigma->0) =    -1063.40856360
 


--------------------------------------------------------------------------------------------------------


    POTLOK:  cpu time    0.2067: real time    0.2088


--------------------------------------------------------------------------------------------------------


     LOOP+:  cpu time  127.5102: real time  129.0032
 vacuum level on the upper side and lower side of the slab         4.061        -2.352
    4ORBIT:  cpu time    0.0000: real time    0.0000
 


 total charge     
 
# of ion       s       p       d       tot
------------------------------------------
    1        0.574   0.115   0.000   0.689
    2        0.574   0.115   0.000   0.689
    3        0.575   0.115   0.000   0.690
    4        0.574   0.115   0.000   0.689
    5        0.575   0.115   0.000   0.690
    6        0.574   0.115   0.000   0.689
    7        0.575   0.115   0.000   0.690
    8        0.574   0.115   0.000   0.689
    9        0.575   0.115   0.000   0.690
   10        0.574   0.115   0.000   0.689
   11        0.574   0.115   0.000   0.689
   12        0.574   0.115   0.000   0.689
   13        0.622   0.114   0.000   0.736
   14        0.610   0.118   0.000   0.728
   15        0.521   0.106   0.000   0.628
   16        0.522   0.107   0.000   0.630
   17        0.622   0.114   0.000   0.736
   18        0.610   0.118   0.000   0.728
   19        0.521   0.106   0.000   0.628
   20        0.522   0.107   0.000   0.630
   21        0.622   0.114   0.000   0.736
   22        0.610   0.118   0.000   0.728
   23        0.521   0.106   0.000   0.628
   24        0.522   0.107   0.000   0.630
   25        0.611   0.117   0.000   0.729
   26        0.527   0.108   0.000   0.635
   27        0.611   0.117   0.000   0.729
   28        0.527   0.108   0.000   0.635
   29        0.611   0.117   0.000   0.729
   30        0.527   0.108   0.000   0.635
   31        0.574   0.115   0.000   0.689
   32        0.574   0.115   0.000   0.689
   33        0.574   0.115   0.000   0.689
   34        0.575   0.115   0.000   0.690
   35        0.574   0.115   0.000   0.689
   36        0.575   0.115   0.000   0.690
   37        0.574   0.115   0.000   0.689
   38        0.575   0.115   0.000   0.690
   39        0.574   0.115   0.000   0.689
   40        0.575   0.115   0.000   0.690
   41        0.574   0.115   0.000   0.689
   42        0.575   0.115   0.000   0.690
   43        0.574   0.115   0.000   0.689
   44        0.574   0.115   0.000   0.689
   45        0.574   0.115   0.000   0.689
   46        0.622   0.114   0.000   0.736
   47        0.610   0.118   0.000   0.728
   48        0.521   0.106   0.000   0.628
   49        0.522   0.107   0.000   0.630
   50        0.622   0.114   0.000   0.736
   51        0.610   0.118   0.000   0.728
   52        0.521   0.106   0.000   0.628
   53        0.522   0.107   0.000   0.630
   54        0.622   0.114   0.000   0.736
   55        0.610   0.118   0.000   0.728
   56        0.521   0.106   0.000   0.628
   57        0.522   0.107   0.000   0.630
   58        0.611   0.117   0.000   0.729
   59        0.527   0.108   0.000   0.635
   60        0.611   0.117   0.000   0.729
   61        0.527   0.108   0.000   0.635
   62        0.611   0.117   0.000   0.729
   63        0.527   0.108   0.000   0.635
   64        0.574   0.115   0.000   0.689
   65        0.574   0.115   0.000   0.689
   66        0.575   0.115   0.000   0.690
   67        0.574   0.115   0.000   0.689
   68        0.575   0.115   0.000   0.690
   69        0.574   0.115   0.000   0.689
   70        0.575   0.115   0.000   0.690
   71        0.574   0.115   0.000   0.689
   72        0.575   0.115   0.000   0.690
   73        0.574   0.115   0.000   0.689
   74        0.575   0.115   0.000   0.690
   75        0.574   0.115   0.000   0.689
   76        0.574   0.115   0.000   0.689
   77        0.574   0.115   0.000   0.689
   78        0.574   0.115   0.000   0.689
   79        0.622   0.114   0.000   0.736
   80        0.610   0.118   0.000   0.728
   81        0.521   0.106   0.000   0.628
   82        0.522   0.107   0.000   0.630
   83        0.622   0.114   0.000   0.736
   84        0.610   0.118   0.000   0.728
   85        0.521   0.106   0.000   0.628
   86        0.522   0.107   0.000   0.630
   87        0.622   0.114   0.000   0.736
   88        0.610   0.118   0.000   0.728
   89        0.521   0.106   0.000   0.628
   90        0.522   0.107   0.000   0.630
   91        0.611   0.117   0.000   0.729
   92        0.527   0.108   0.000   0.635
   93        0.611   0.117   0.000   0.729
   94        0.527   0.108   0.000   0.635
   95        0.611   0.117   0.000   0.729
   96        0.527   0.108   0.000   0.635
   97        0.574   0.115   0.000   0.689
   98        0.574   0.115   0.000   0.689
   99        0.574   0.115   0.000   0.689
  100        0.575   0.115   0.000   0.690
  101        0.574   0.115   0.000   0.689
  102        0.575   0.115   0.000   0.690
  103        0.574   0.115   0.000   0.689
  104        0.575   0.115   0.000   0.690
  105        0.574   0.115   0.000   0.689
  106        0.575   0.115   0.000   0.690
  107        0.574   0.115   0.000   0.689
  108        0.575   0.115   0.000   0.690
  109        0.574   0.115   0.000   0.689
  110        0.575   0.115   0.000   0.690
  111        0.574   0.115   0.000   0.689
  112        0.574   0.115   0.000   0.689
  113        0.574   0.115   0.000   0.689
  114        0.574   0.115   0.000   0.689
  115        0.622   0.114   0.000   0.736
  116        0.610   0.118   0.000   0.728
  117        0.521   0.106   0.000   0.628
  118        0.522   0.107   0.000   0.630
  119        0.622   0.114   0.000   0.736
  120        0.610   0.118   0.000   0.728
  121        0.521   0.106   0.000   0.628
  122        0.522   0.107   0.000   0.630
  123        0.622   0.114   0.000   0.736
  124        0.610   0.118   0.000   0.728
  125        0.521   0.106   0.000   0.628
  126        0.522   0.107   0.000   0.630
  127        0.611   0.117   0.000   0.729
  128        0.527   0.108   0.000   0.635
  129        0.611   0.117   0.000   0.729
  130        0.527   0.108   0.000   0.635
  131        0.611   0.117   0.000   0.729
  132        0.527   0.108   0.000   0.635
  133        0.574   0.115   0.000   0.689
  134        0.575   0.115   0.000   0.690
  135        0.574   0.115   0.000   0.689
  136        0.574   0.115   0.000   0.689
  137        0.575   0.115   0.000   0.690
  138        0.574   0.115   0.000   0.689
  139        0.575   0.115   0.000   0.690
  140        0.574   0.115   0.000   0.689
  141        0.574   0.115   0.000   0.689
  142        0.575   0.115   0.000   0.690
  143        0.574   0.115   0.000   0.689
  144        0.574   0.115   0.000   0.689
  145        1.583   3.641   0.000   5.224
  146        1.581   3.649   0.000   5.230
  147        1.581   3.668   0.000   5.248
  148        1.583   3.641   0.000   5.224
  149        1.581   3.649   0.000   5.230
  150        1.581   3.668   0.000   5.248
  151        1.583   3.641   0.000   5.224
  152        1.581   3.649   0.000   5.230
  153        1.581   3.668   0.000   5.248
  154        1.580   3.654   0.000   5.234
  155        1.581   3.666   0.000   5.248
  156        1.583   3.648   0.000   5.231
  157        1.580   3.654   0.000   5.234
  158        1.581   3.666   0.000   5.248
  159        1.583   3.648   0.000   5.231
  160        1.580   3.654   0.000   5.234
  161        1.581   3.666   0.000   5.248
  162        1.583   3.648   0.000   5.231
  163        1.583   3.641   0.000   5.224
  164        1.581   3.649   0.000   5.230
  165        1.581   3.668   0.000   5.248
  166        1.583   3.641   0.000   5.224
  167        1.581   3.649   0.000   5.230
  168        1.581   3.668   0.000   5.248
  169        1.583   3.641   0.000   5.224
  170        1.581   3.649   0.000   5.230
  171        1.581   3.668   0.000   5.248
  172        1.580   3.654   0.000   5.234
  173        1.581   3.666   0.000   5.248
  174        1.583   3.648   0.000   5.231
  175        1.580   3.654   0.000   5.234
  176        1.581   3.666   0.000   5.248
  177        1.583   3.648   0.000   5.231
  178        1.580   3.654   0.000   5.234
  179        1.581   3.666   0.000   5.248
  180        1.583   3.648   0.000   5.231
  181        1.583   3.641   0.000   5.224
  182        1.581   3.649   0.000   5.230
  183        1.581   3.668   0.000   5.248
  184        1.583   3.641   0.000   5.224
  185        1.581   3.649   0.000   5.230
  186        1.581   3.668   0.000   5.248
  187        1.583   3.641   0.000   5.224
  188        1.581   3.649   0.000   5.230
  189        1.581   3.668   0.000   5.248
  190        1.580   3.654   0.000   5.234
  191        1.581   3.666   0.000   5.248
  192        1.583   3.648   0.000   5.231
  193        1.580   3.654   0.000   5.234
  194        1.581   3.666   0.000   5.248
  195        1.583   3.648   0.000   5.231
  196        1.580   3.654   0.000   5.234
  197        1.581   3.666   0.000   5.248
  198        1.583   3.648   0.000   5.231
  199        1.583   3.641   0.000   5.224
  200        1.581   3.649   0.000   5.230
  201        1.581   3.668   0.000   5.248
  202        1.583   3.641   0.000   5.224
  203        1.581   3.649   0.000   5.230
  204        1.581   3.668   0.000   5.248
  205        1.583   3.641   0.000   5.224
  206        1.581   3.649   0.000   5.230
  207        1.581   3.668   0.000   5.248
  208        1.580   3.654   0.000   5.234
  209        1.581   3.666   0.000   5.248
  210        1.583   3.648   0.000   5.231
  211        1.580   3.654   0.000   5.234
  212        1.581   3.666   0.000   5.248
  213        1.583   3.648   0.000   5.231
  214        1.580   3.654   0.000   5.234
  215        1.581   3.666   0.000   5.248
  216        1.583   3.648   0.000   5.231
--------------------------------------------------
tot        196.185 279.441   0.000 475.626
 

 total amount of memory used by VASP MPI-rank0    74403. kBytes
=======================================================================

   base      :      30000. kBytes
   nonlr-proj:        916. kBytes
   fftplans  :      10983. kBytes
   grid      :      19058. kBytes
   one-center:         16. kBytes
   wavefun   :      13430. kBytes
 
  
  
 General timing and accounting informations for this job:
 ========================================================
  
                  Total CPU time used (sec):      164.196
                            User time (sec):      146.148
                          System time (sec):       18.047
                         Elapsed time (sec):      167.072
  
                   Maximum memory used (kb):      453236.
                   Average memory used (kb):           0.
  
                          Minor page faults:       138869
                          Major page faults:            0
                 Voluntary context switches:        11860
