    #         X           Y           Z       CHARGE      MIN DIST   ATOMIC VOL
 --------------------------------------------------------------------------------
    1    0.000000    0.000000    0.000000   10.998990     1.266394    85.823895
    2    2.937313    1.698387    2.332788   10.962610     1.255469    17.296525
    3    0.001676    3.388857    4.635760   10.977660     1.251824    17.363108
    4    0.000103    0.001629    7.021537   11.023648     1.293337    24.736969
    5   13.227930    2.545716    0.000000   11.058919     1.283384   143.508866
    6    1.473246    4.244613    2.328852   10.974826     1.251405    17.341801
    7    1.461914    0.846667    4.640926   10.952171     1.252778    17.251248
    8   13.227173    2.545194    6.971598   11.083010     1.265515    22.470479
    9    1.469770    2.545716    0.000000   11.039008     1.265736   109.954513
   10   -1.469888    4.244956    2.335002   10.987185     1.254882    17.427028
   11    4.405202    0.851453    4.633005   10.996265     1.269513    17.469641
   12    1.460084    2.530340    7.000577   11.084228     1.294194    23.863398
   13    2.939540    0.000000    0.000000   11.061271     1.277207   157.330638
   14   -0.003175    1.699138    2.329787   10.942801     1.252925    17.180226
   15    2.928135    3.393974    4.643337   10.970737     1.252816    17.375537
   16    2.938394    0.002520    6.971943   11.082696     1.269934    22.459826
   17    5.879080    0.000000    0.000000   11.063028     1.279084   138.543539
   18    8.818693    1.696491    2.335248   10.948627     1.261431    17.219288
   19    5.871981    3.387686    4.641369   10.938985     1.253523    17.189104
   20    5.861751    0.002749    6.980799   11.057133     1.284688    23.964605
   21    4.409310    2.545716    0.000000   11.043363     1.276717   120.052956
   22    7.348879    4.242920    2.342972   10.920471     1.251955    17.075469
   23    7.337944    0.847265    4.633202   10.963971     1.253351    17.308954
   24    4.384081    2.547969    6.984981   11.046028     1.270562    23.602392
   25    7.348850    2.545716    0.000000   11.018558     1.277943   192.946405
   26    4.409406    4.243314    2.335199   10.958063     1.256857    17.269892
   27   10.294776    0.838012    4.643337   10.965251     1.268213    17.342689
   28    7.364444    2.550400    6.966728   11.060114     1.286504    23.166495
   29    8.818620    0.000000    0.000000   11.052023     1.274097   122.845897
   30    5.879712    1.701353    2.325949   10.974468     1.262580    17.325821
   31    8.827586    3.391225    4.641418   10.944747     1.265322    17.226391
   32    1.443505   12.728301    6.958856   11.057575     1.277073    23.344050
   33   11.758160    0.000000    0.000000   11.016762     1.283384   124.569957
   34   11.757646    3.388959    4.632808   10.996884     1.260203    17.476743
   35   11.778017    0.000102    7.001069   11.088874     1.288876    23.818122
   36   10.288390    2.545716    0.000000   11.030794     1.273933   123.276468
   37   13.234309    0.843345    4.640779   10.954609     1.256907    17.262789
   38   10.299266    2.522117    6.984833   11.057703     1.293661    23.684955
   39   10.284062    4.241049    2.325998   10.977980     1.251962    17.348016
   40   11.758351    1.694301    2.332689   10.961132     1.254991    17.278769
   41   -2.939540    5.091432    0.000000   11.065669     1.274097   136.450165
   42   -0.003792    6.786243    2.329787   10.940225     1.260313    17.155369
   43   -2.938482    8.491644    4.632267   10.972169     1.250276    17.324046
   44   11.762812    5.074694    6.980504   11.056714     1.283220    23.959278
   45   -4.409310    7.637149    0.000000   11.050942     1.279084   124.300961
   46   -1.469241    9.337942    2.329737   10.941957     1.249659    17.169573
   47   -1.466522    5.937679    4.651504   10.966285     1.268636    17.357781
   48   10.301368    7.614390    6.958462   11.057302     1.288290    23.335172
   49   -1.469770    7.637149    0.000000   11.010873     1.274587   161.302545
   50   -4.408854    9.331043    2.328950   10.971352     1.267577    17.320495
   51    1.464383    5.937743    4.632464   10.965256     1.258961    17.287647
   52   -1.474121    7.656878    6.968499   11.065978     1.267710    23.235741
   53    0.000000    5.091432    0.000000   11.049490     1.283709   127.004237
   54   -2.936747    6.785937    2.333477   10.964588     1.262141    17.301851
   55    0.000309    8.484643    4.630348   10.920957     1.259804    17.040846
   56    0.015359    5.068750    6.985621   11.047795     1.282302    23.630801
   57    2.939540    5.091432    0.000000   11.037010     1.283391   121.141369
   58    5.882490    6.786472    2.325851   10.959151     1.252463    17.240595
   59    2.939944    8.490231    4.651308   10.966399     1.258300    17.354230
   60    2.953664    5.114573    6.959249   11.067368     1.270679    23.438154
   61    1.469770    7.637149    0.000000   11.018229     1.284358   163.911716
   62    4.407480    9.333372    2.335051   10.987907     1.249175    17.427916
   63    4.414212    5.950115    4.633054   10.951271     1.250095    17.231717
   64    1.455660    7.623860    6.968302   11.058163     1.284915    23.176260
   65    4.409310    7.637149    0.000000   11.066624     1.268695   137.189682
   66    1.473239    9.331654    2.329787   10.947116     1.256368    17.196206
   67    7.346756    5.949581    4.641172   10.949122     1.264530    17.249473
   68    4.421943    7.651265    6.980454   11.048106     1.280901    23.817234
   69    5.879080    5.091432    0.000000   11.018176     1.280628   161.452579
   70    2.940341    6.792620    2.333477   10.961770     1.251761    17.280545
   71    5.884621    8.488920    4.632808   10.992061     1.252228    17.448334
   72    5.875751    5.075280    6.966728   11.060911     1.295569    23.183362
   73    8.818620    5.091432    0.000000   11.040756     1.277943   164.243744
   74    8.824198    8.497359    4.643337   10.968042     1.247385    17.363996
   75    8.806090    5.102341    6.966580   11.046365     1.274423    23.028889
   76    7.348850    7.637149    0.000000   11.042564     1.276717   118.473604
   77   10.293865    5.931506    4.632907   10.964957     1.267413    17.309841
   78    7.364099    7.658800    6.984784   11.064520     1.284006    23.741773
   79    7.351305    9.336287    2.332542   10.962119     1.255227    17.289423
   80    8.818620    6.789349    2.334953   10.954604     1.270574    17.258350
   81   -5.879080   10.182865    0.000000   11.021858     1.277207   118.975197
   82   -2.937350   11.878694    2.335002   10.991818     1.268756    17.449222
   83   -5.888913   10.201245    7.001020   11.090601     1.286491    23.837653
   84   -4.414998   11.033643    4.636105   10.973882     1.267588    17.340914
   85   -1.473503   11.028679    4.651455   10.960705     1.262072    17.331148
   86   -2.939540   10.182865    0.000000   11.036799     1.280549   124.516690
   87   -5.875428   11.882092    2.329688   10.936784     1.257344    17.144715
   88   -2.968120   10.181401    6.985621   11.059694     1.283260    23.700048
   89    0.000000   10.182865    0.000000   11.028745     1.274587   182.074710
   90    2.936556   11.881494    2.328999   10.975524     1.261031    17.349791
   91    0.019305   10.176437    6.968154   11.053113     1.279694    23.078605
   92    1.474385   11.027152    4.632119   10.972007     1.256183    17.327597
   93    4.414359   11.035871    4.635957   10.976553     1.264680    17.358669
   94    2.939540   10.182865    0.000000   11.050156     1.283709   124.555752
   95   -0.003799   11.878223    2.333231   10.965856     1.246809    17.308954
   96    2.953224   10.208678    6.985227   11.057361     1.279743    23.717803
   97    5.879080   10.182865    0.000000   11.056321     1.265736   151.875260
   98    5.881645   10.183692    6.972041   11.101610     1.282078    22.638268
   99    7.350886   11.040911    4.640828   10.974440     1.254485    17.378200
  100    5.879198   11.876606    2.329737   10.937882     1.249286    17.154481
  101    2.017201    0.806279   14.694733    0.292852     0.043911     4.294169
  102    3.391347    4.266213   14.500145    0.324312     0.048177     8.985173
  103    0.308777    2.134901   10.881849    0.292732     0.042891     1.684110
  104   -1.960644    5.001365   10.707778    0.310248     0.058439     1.871430
  105    1.695159    1.334770   10.881357    0.293307     0.043504     1.593557
  106    5.311609    0.801328   10.709058    0.308230     0.057884     1.859889
  107   -0.309732    2.150150   14.694585    0.293642     0.043789    11.730174
  108    1.999725    5.069819   14.502901    0.322486     0.050186     8.535959
  109   -4.940264   12.721097    9.258974    0.432585     0.098380     2.570997
  110   -3.913035   12.725132   10.530952    0.316177     0.067712     1.424879
  111    2.308972    4.013843    9.157031    0.383395     0.065188     2.235418
  112    1.916587    3.321587   10.575134    0.345371     0.136938     1.717845
  113   13.488733    2.083401    9.258777    0.427399     0.098343     2.568334
  114   12.977658    2.974364   10.530706    0.316407     0.067741     1.424879
  115    4.757763    0.000535   12.926520    0.376784     0.073790     2.739674
  116    3.884345    0.001133   14.320564    0.322254     0.052778     2.584314
  117    1.263186    2.186757   13.083764    0.306653     0.026547     2.200795
  118    1.740340    3.013110   14.399088    0.327871     0.111380     1.884747
  119   -2.376655    4.121044   12.925782    0.372619     0.074717     2.746777
  120   -1.940530    3.364304   14.320023    0.322187     0.052199     2.604733
  121    9.307194    0.804026   14.507575    0.323163     0.053979     9.100584
  122   10.716100    4.218341   14.502015    0.294555     0.044479     1.675232
  123    5.643241    1.344775   14.502950    0.301658     0.066806     1.853675
  124    7.648169    2.120429   10.611346    0.299316     0.017392     1.675232
  125    5.362081    5.043331   10.607705    0.333110     0.106530     2.224765
  126    3.971407    4.218659   10.632649    0.283238     0.026448     1.516320
  127    9.058707    1.331588   10.635011    0.289697     0.027476     1.628180
  128   12.689325    0.799597   10.885982    0.326407     0.091686     1.780877
  129    7.040176    2.146484   14.466148    0.315644     0.025206     2.063190
  130    9.322979    5.026886   14.464032    0.305637     0.019880     2.016138
  131    2.719501   12.727054    9.156588    0.350680     0.065981     2.066741
  132   10.861630    0.000662   10.576856    0.323603     0.064085     1.535851
  133    9.852309    4.126682    9.084756    0.400058     0.072143     2.179488
  134    9.291533    3.348610   10.399833    0.331778     0.113810     1.850124
  135    5.994082    2.128461    9.083329    0.419112     0.073784     2.262051
  136    5.599809    3.004785   10.396930    0.305273     0.036323     1.572250
  137   12.168218    0.000267   13.088389    0.304600     0.022230     2.163508
  138   11.216388    0.000484   14.405484    0.304319     0.040498     1.666354
  139    8.611596    2.197093   12.831514    0.347414     0.061754     2.594079
  140    9.072765    2.992833   14.189100    0.304862     0.087840     1.776438
  141    4.946423    4.172531   12.825954    0.364662     0.067141     2.703276
  142    5.404418    3.377249   14.185853    0.309618     0.024950     1.839470
  143   -1.661781    7.169093   14.471117    0.277752     0.024959     1.827929
  144   -0.308439   10.587163   14.468756    0.290092     0.020476     1.890073
  145    1.666572    5.549559   10.638554    0.285026     0.028337     1.522535
  146   -3.374239    8.511195   10.640915    0.293111     0.029510     1.649486
  147   -5.652934   11.389089   10.886671    0.327046     0.091739     1.786204
  148   -1.986240    7.683493   10.615921    0.299003     0.013803     1.674344
  149    1.686054    7.166102   10.612526    0.330155     0.105239     1.972637
  150   -3.957892    8.461897   14.509936    0.321804     0.055777     8.717065
  151   -1.705117   11.389496   14.504918    0.295076     0.047066     2.612722
  152   -1.657460    5.558393   14.504967    0.304937     0.064981     2.957179
  153   -1.149184    6.261316    9.084018    0.421972     0.073081     2.270041
  154   -0.196729    6.353242   10.400424    0.305958     0.032873     1.566036
  155   -1.349896   10.589237    9.085690    0.396506     0.071778     2.167059
  156   -1.744911    9.719544   10.403376    0.332259     0.113615     1.841246
  157   -5.021969    8.726333    9.156539    0.343139     0.067296     2.041883
  158   -5.428096    9.408025   10.576758    0.321090     0.064090     1.533188
  159    1.139998    6.371215   12.832203    0.363637     0.061196     2.702388
  160    0.222251    6.368758   14.191905    0.314668     0.028992     1.851899
  161   -2.401685    8.555299   12.836877    0.341756     0.056918     2.615386
  162   -1.944528    9.353229   14.194463    0.306714     0.088818     1.767560
  163    8.612867   10.537585   13.088487    0.301618     0.022264     2.174162
  164    9.088918    9.713524   14.405681    0.303485     0.040646     1.670793
  165    5.688877    7.168839   14.502064    0.303687     0.045208     1.848348
  166    7.037362   10.575974   14.695274    0.291210     0.046107     1.893625
  167    1.971704    7.703248   14.467673    0.294924     0.082057     1.778214
  168    9.037645    5.567634   10.611247    0.305204     0.016747     1.808398
  169    3.995276    8.529829   10.705761    0.310000     0.050569     1.788867
  170    1.711268   11.401321   10.638111    0.308918     0.090890     1.716957
  171    0.302148   10.609387   10.615134    0.304746     0.013005     1.818164
  172    5.388037    7.725701   10.706696    0.311564     0.049924     1.869655
  173    9.019743    7.184011   10.632895    0.312564     0.092253     1.740039
  174    3.364708    8.511258   14.503934    0.307648     0.046763     2.816023
  175    5.639794   11.382979   14.695077    0.292320     0.046080     1.844797
  176    5.685328    5.558686   14.462950    0.296468     0.082122     1.815500
  177    6.201327    6.470956    9.083083    0.415687     0.075320     2.275368
  178    7.154848    6.377668   10.398800    0.311686     0.035855     1.479034
  179    6.144969   10.645434    9.259811    0.394365     0.044792     2.384564
  180    5.630586    9.753683   10.529673    0.345153     0.119836     1.674344
  181    2.496779    8.605959    9.083722    0.418311     0.074782     2.286021
  182    1.944072    9.384745   10.401654    0.312961     0.032895     1.469268
  183    8.490009    6.363043   12.829841    0.362962     0.063411     2.696173
  184    7.570763    6.360434   14.188313    0.309638     0.026016     1.708080
  185    4.967712    8.605857   12.923420    0.373776     0.074836     2.741450
  186    5.405050    9.362253   14.317169    0.318701     0.105499     2.756542
  187    1.264017   10.533206   12.834613    0.361230     0.058928     2.710378
  188    1.723026    9.736677   14.192938    0.322253     0.087574     1.762234
  189   12.990055    1.343820   14.696111    0.309204     0.070515    14.913736
  190   11.344030    4.198561   10.710091    0.301979     0.049168     1.772887
  191    9.348009    7.658596   14.506935    0.323254     0.065232     8.837802
  192    7.659052   10.588512   10.886179    0.350325     0.091631     1.885635
  193   -2.036322   11.922124   10.709500    0.303251     0.049981     1.843909
  194   -5.331289   11.921143   14.696012    0.308200     0.070667    14.945696
  195    5.340858   11.927839   10.886720    0.352723     0.091804     2.075618
  196    1.958182   11.925624   14.508559    0.317769     0.063923     8.555490
  197   -4.920018   12.724521   10.242392    7.277174     0.697836    21.936038
  198   -4.800798   12.728352   14.962039    7.328010     0.697981   333.123450
  199    2.390610    4.145139   10.126230    7.307722     0.685689    21.575601
  200    2.451326    4.243913   14.845680    7.281887     0.692354   256.629185
  201   13.480223    2.101832   10.242195    7.281541     0.697631    21.937814
  202   -1.273644    2.206881   14.962039    7.326199     0.697389   388.240088
  203    4.841738    0.002482   13.904722    7.304101     0.708411    26.420191
  204   -2.532553   12.725793   11.046179    7.370033     0.696023    24.444003
  205    1.246630    2.158335   14.066050    7.369401     0.755491    26.993694
  206    1.255095    2.173176   11.214936    7.386180     0.707459    24.587823
  207   -2.418022    4.194067   13.903984    7.308850     0.708171    26.402435
  208   12.288512    4.170672   11.045834    7.368591     0.697354    24.497270
  209    9.912188    0.001706   10.125492    7.359457     0.723623    21.749605
  210    9.795775    0.000751   14.853257    7.292308     0.675770   258.642660
  211    9.811259    4.194195   10.063352    7.304174     0.717043    21.380291
  212    9.750785    4.173664   14.766910    7.326932     0.683921   215.290820
  213    6.071657    2.131235   10.062072    7.306118     0.715790    21.334127
  214    6.087008    2.203216   14.768091    7.321311     0.632505   246.390474
  215   12.202993    0.000293   14.070675    7.389936     0.697893    27.169473
  216    4.834367   12.728046   11.220201    7.296589     0.626736    24.183885
  217    8.586095    2.149157   13.811635    7.351766     0.724966    26.399772
  218    8.593231    2.166124   10.940841    7.383986     0.669091    24.244254
  219    4.916777    4.219805   13.806075    7.326364     0.694024    26.061530
  220    4.927294    4.202812   10.936757    7.363146     0.702283    24.241590
  221   -1.188493    6.325048   10.062860    7.302922     0.716622    21.328800
  222   -1.136426    6.371495   14.772322    7.353359     0.710105   248.492726
  223   -1.273335   10.591961   10.064385    7.305850     0.718111    21.391832
  224   -1.261430   10.531450   14.771190    7.342048     0.695120   222.289152
  225   -4.950097    8.587566   10.125492    7.369404     0.723727    21.747830
  226    9.799030    8.483217   14.853699    7.287113     0.677257   258.191670
  227    1.195878    6.368644   13.812275    7.322637     0.691595    26.048213
  228    1.175544    6.369853   10.942956    7.364276     0.704681    24.232713
  229   -2.431492    8.509680   13.817096    7.356677     0.730408    26.386455
  230   -2.418727    8.524433   10.946942    7.383398     0.669769    24.209630
  231    8.595729   10.567930   14.070724    7.393983     0.697964    27.142840
  232    8.605055   10.550301   11.220201    7.296893     0.626173    24.182109
  233    6.162951    6.402196   10.061728    7.301266     0.715538    21.365199
  234    6.210131    6.355330   14.767550    7.333372     0.697472   218.377614
  235    6.134548   10.625985   10.243228    7.292819     0.698683    22.077194
  236    6.072715   10.519090   14.959579    7.345733     0.697987   302.478337
  237    2.461262    8.538536   10.062515    7.297839     0.716408    21.378515
  238    2.399980    8.556216   14.771141    7.330818     0.697465   228.389943
  239    8.544537    6.362814   13.810011    7.327792     0.691514    26.344730
  240    8.527980    6.365194   10.939857    7.362446     0.672255    24.227386
  241    4.926427    8.533050   13.901623    7.309749     0.717488    26.572888
  242    4.939280    8.557043   11.042833    7.352827     0.691829    24.217620
  243    1.237363   10.580824   13.814784    7.316682     0.689663    26.230207
  244    1.247225   10.566364   10.945121    7.367285     0.672913    24.214957
 --------------------------------------------------------------------------------
    VACUUM CHARGE:               0.0000
    VACUUM VOLUME:               0.0000
    NUMBER OF ELECTRONS:      1484.0001
