    #         X           Y           Z       CHARGE      MIN DIST   ATOMIC VOL
 --------------------------------------------------------------------------------
    1    0.000000    0.000000    0.000000   10.991238     1.266394   154.854633
    2    2.925320    1.701086    2.332788   10.984287     1.269751    17.395068
    3   -0.006298    3.353536    4.645157   10.972131     1.267301    17.289423
    4    0.000904    0.002049    7.176420   11.032271     1.280115    26.858752
    5   13.227930    2.545716    0.000000   11.016415     1.283384   157.382129
    6    1.473635    4.246280    2.322505   10.977552     1.256304    17.330260
    7    1.453610    0.812987    4.673497   10.966766     1.285486    17.354230
    8   13.239475    2.518362    7.119446   11.066933     1.298779    24.279765
    9    1.469770    2.545716    0.000000   11.042105     1.265736   101.463831
   10   -1.471989    4.246611    2.335641   10.989481     1.255932    17.410160
   11    4.360029    0.832806    4.635268   10.984854     1.256146    17.406609
   12    1.428264    2.489099    7.022373   11.074394     1.289405    23.264150
   13    2.939540    0.000000    0.000000   11.015241     1.277207   185.126881
   14   -0.006798    1.700984    2.331804   10.952789     1.260183    17.228166
   15    2.901363    3.378305    4.646929   10.968816     1.247661    17.346240
   16    2.909961    0.008134    7.118658   11.065394     1.295870    24.254019
   17    5.879080    0.000000    0.000000   11.054108     1.279084   154.975371
   18    8.827255    1.705286    2.336773   10.975052     1.264506    17.368435
   19    5.857026    3.387546    4.647125   10.989562     1.240467    17.500713
   20    5.831011    0.014447    6.983702   11.113255     1.266266    22.996930
   21    4.409310    2.545716    0.000000   11.036422     1.276717   118.551729
   22    7.349232    4.243556    2.345285   10.940652     1.253701    17.210411
   23    7.312841    0.847011    4.619868   10.965782     1.224249    17.293861
   24    4.353554    2.509860    6.955657   10.998551     1.267865    22.100277
   25    7.348850    2.545716    0.000000   11.028429     1.277943   170.320565
   26    4.410912    4.233373    2.336921   10.959631     1.256311    17.276994
   27   10.323312    0.825907    4.647027   10.963830     1.286947    17.314280
   28    7.363959    2.547855    6.930516   10.979785     1.266060    21.576489
   29    8.818620    0.000000    0.000000   11.044751     1.274097   156.711859
   30    5.876545    1.704752    2.328212   10.976819     1.242726    17.337362
   31    8.839410    3.381258    4.647765   10.974282     1.256163    17.406609
   32    8.785874    0.013772    6.891057   11.003085     1.251237    21.918283
   33   11.758160    0.000000    0.000000   11.041965     1.283384   173.828165
   34   11.798152    3.361135    4.635022   10.985564     1.281783    17.411048
   35    4.481571   12.723248    7.023062   11.078703     1.288436    23.258823
   36   10.288390    2.545716    0.000000   11.024703     1.273933   117.934725
   37   13.268033    0.854381    4.673940   10.974124     1.296494    17.396843
   38   10.352171    2.518261    6.956199   11.000981     1.277378    22.206810
   39   10.284561    4.238732    2.327573   10.966490     1.254172    17.283208
   40   11.763032    1.683444    2.332591   10.974832     1.279122    17.340914
   41   -2.939540    5.091432    0.000000   11.056009     1.274097   158.871816
   42    0.002969    6.793269    2.321521   10.964648     1.246752    17.236156
   43   -2.940532    8.519303    4.621787   10.983048     1.250716    17.338250
   44   11.774254    5.044438    6.984833   11.114007     1.283095    22.989827
   45   -4.409310    7.637149    0.000000   11.043507     1.279084   152.349332
   46   -1.467440    9.331285    2.321226   10.945067     1.252392    17.127847
   47   -1.472313    5.933784    4.638073   10.977102     1.255079    17.338250
   48   10.295335    7.606638    6.888893   11.002626     1.246334    21.873894
   49   -1.469770    7.637149    0.000000   11.024035     1.274587   166.171104
   50   -4.408524    9.330623    2.322111   10.991481     1.243377    17.403058
   51    1.444666    5.923933    4.622132   10.984881     1.232595    17.348016
   52   -1.478780    7.633941    6.921758   10.983685     1.257056    21.699002
   53    0.000000    5.091432    0.000000   11.043566     1.283709   133.411310
   54   -2.939555    6.783112    2.326835   10.970159     1.249248    17.298300
   55    0.000272    8.487176    4.636597   10.927047     1.247376    17.016876
   56   -0.004226    5.022100    6.949458   10.999225     1.270109    22.168635
   57    2.939540    5.091432    0.000000   11.029738     1.283391   174.336861
   58    5.885826    6.787745    2.327966   10.974189     1.255628    17.326709
   59    2.948307    8.488576    4.637285   10.988209     1.263936    17.403946
   60    2.966723    5.115222    6.892386   10.995323     1.262572    21.880108
   61    1.469770    7.637149    0.000000   11.010371     1.284358   165.585172
   62    4.407958    9.331705    2.334903   10.992518     1.248358    17.423477
   63    4.424044    5.974656    4.620262   10.962472     1.237104    17.271667
   64    1.478258    7.633292    6.920873   10.985164     1.255129    21.729187
   65    4.409310    7.637149    0.000000   11.057452     1.268695   151.470434
   66    1.464810    9.335256    2.321275   10.949375     1.261579    17.150930
   67    7.354266    5.966128    4.646141   10.975827     1.234920    17.412823
   68    4.443129    7.676760    6.984686   11.109732     1.271445    22.952541
   69    5.879080    5.091432    0.000000   11.007649     1.280628   137.709918
   70    2.945544    6.791831    2.326490   10.963571     1.249725    17.256575
   71    5.888406    8.537683    4.634087   10.987638     1.236619    17.422589
   72    5.873113    5.084457    6.929926   10.982981     1.268645    21.606674
   73    8.818620    5.091432    0.000000   11.010929     1.277943   134.687043
   74    8.822816    8.529613    4.645502   10.964200     1.238616    17.316944
   75    8.814372    5.108183    6.931746   10.967146     1.251296    21.437108
   76    7.348850    7.637149    0.000000   11.035615     1.276717   119.791063
   77   10.311723    5.911268    4.620360   10.964317     1.270163    17.285871
   78    7.342684    7.709892    6.953689   11.000388     1.262109    22.189054
   79    7.358653    9.345528    2.332591   10.976974     1.256667    17.350679
   80    8.809860    6.792913    2.336724   10.969888     1.266937    17.340026
   81   -5.879080   10.182865    0.000000   11.051772     1.277207   141.772377
   82   -2.935829   11.882245    2.335346   10.977433     1.268653    17.347128
   83   -5.908358   10.251039    7.022816   11.075632     1.284843    23.257048
   84   -4.443166   11.060437    4.643681   10.966232     1.235477    17.255687
   85   -1.473827   11.041229    4.636597   10.979485     1.240285    17.348904
   86   -2.939540   10.182865    0.000000   11.027980     1.280549   142.300604
   87   -5.873635   11.885071    2.330967   10.953233     1.258087    17.226391
   88   -2.997478   10.227288    6.946900   10.995931     1.250704    22.236994
   89    0.000000   10.182865    0.000000   11.004134     1.274587   184.228452
   90    2.935366   11.882665    2.322603   10.982232     1.261157    17.359557
   91    0.000941   10.193939    6.920774   10.955748     1.257235    21.480609
   92    1.497821   11.020444    4.621886   10.982872     1.250976    17.329372
   93    4.449170   11.048867    4.644961   10.960706     1.275009    17.230829
   94    2.939540   10.182865    0.000000   11.041791     1.283709   141.300081
   95   -0.004740   11.885707    2.326097   10.964916     1.250157    17.265453
   96    3.002711   10.215730    6.948474   11.002125     1.273409    22.226341
   97    5.879080   10.182865    0.000000   11.037240     1.265736   146.960536
   98    5.898275   10.208933    7.118412   11.063855     1.298645    24.254907
   99    7.324283   11.064790    4.673694   10.961629     1.260610    17.332036
  100    5.880101   11.873157    2.331656   10.946407     1.260268    17.187328
  101    0.352370    2.199715   11.348171    0.301130     0.033984     4.193850
  102   -2.004377    5.032614   11.324112    0.308322     0.088558    53.185726
  103    1.733998    1.399495   11.345858    0.308226     0.033259     5.343519
  104    5.366608    0.771441   11.311172    0.299077     0.077486    39.384372
  105   -4.759248   12.718576    9.763377    0.419792     0.086147     3.271452
  106   -3.855038   12.722102   11.112599    0.318182     0.025299     2.784951
  107    2.020294    3.492379    9.106994    0.375210     0.065438     2.275368
  108    1.868159    3.225639   10.708762    0.373561     0.152025     3.869812
  109   13.400525    2.245958    9.768346    0.416828     0.083106     3.290095
  110   -1.745117    3.024744   11.121751    0.309220     0.021937     3.303412
  111    7.760062    2.063634    9.899662    0.179172     0.068962     5.594759
  112    5.251451    4.976124    9.901236    0.283940     0.064706     6.365348
  113    3.901791    4.054880    9.844803    0.332552     0.079767     2.256725
  114    9.229061    1.350006    9.838653    0.326812     0.077349     2.519506
  115   12.602411    0.800119   11.345465    0.307524     0.103519     3.981672
  116    3.304638   12.725157    9.100352    0.396802     0.061211     2.370360
  117    3.609175   12.728288   10.703252    0.337241     0.084418     3.770381
  118   10.568631    4.384614    9.231619    0.353884     0.056526     2.372135
  119    9.489937    3.495345    9.968149    0.320525     0.115794     3.137398
  120    5.864845    1.388268    9.228027    0.399536     0.064633     2.601181
  121    5.634363    2.766073    9.966968    0.303606     0.049037     2.306440
  122    1.571478    5.402646    9.839736    0.337741     0.087621     2.372135
  123   -3.448463    8.654620    9.831815    0.326620     0.081049     2.518618
  124   -5.609370   11.308924   11.343448    0.299817     0.099105     4.082878
  125   -2.094804    7.740250    9.889035    0.192284     0.070064     5.658679
  126    1.690177    7.032541    9.889428    0.325939     0.070159     6.695601
  127   -1.723291    5.756424    9.229159    0.398178     0.081050     2.610947
  128   -0.414086    6.255474    9.959440    0.309297     0.053861     2.882606
  129   -1.494925   11.336494    9.219220    0.358628     0.052178     2.399656
  130   -1.718911    9.954565    9.952110    0.328042     0.124053     2.272705
  131    9.368057    9.220928    9.098778    0.395707     0.058180     2.326859
  132    9.214973    9.484117   10.701432    0.337170     0.041924     3.941722
  133    9.030936    5.682942    9.902909    0.258841     0.065822     5.871745
  134    3.993990    8.474015   11.313435    0.309511     0.017962    33.302224
  135    1.878682   11.379160    9.834816    0.359487     0.120838     2.361482
  136    0.409603   10.664476    9.886476    0.301263     0.073760     6.400859
  137    5.338352    7.697533   11.314173    0.305309     0.021566    36.776089
  138    8.909885    7.311284    9.837669    0.354266     0.118713     2.304664
  139    5.617167    6.955024    9.228076    0.365396     0.059283     2.517731
  140    6.924439    6.461359    9.965984    0.301663     0.045268     3.951488
  141    6.052822   10.492958    9.764607    0.420141     0.082276     3.269676
  142    5.602668    9.708611   11.113436    0.322253     0.094340     3.233277
  143    3.220935    8.346372    9.223993    0.376274     0.057357     2.577211
  144    2.135782    9.231174    9.956193    0.307637     0.042891     3.441017
  145   11.347910    4.258283   11.324210    0.301788     0.025368    52.417801
  146    7.703763   10.515348   11.343694    0.299706     0.027908     4.057133
  147   -1.983962   11.946804   11.309893    0.291627     0.016374    35.101745
  148    5.255427   11.932714   11.346154    0.294935     0.030081     4.648391
  149   -4.825718   12.719455   10.740398    7.286606     0.699702    25.171979
  150    2.262277    3.907713    9.966230    7.291184     0.701006    25.554610
  151   13.434183    2.184072   10.745318    7.297058     0.709012    25.219919
  152   -2.452164   12.723515   11.708072    7.390693     0.687239   652.553856
  153    1.319295    2.275794   11.585760    7.359328     0.714282   394.309807
  154   -2.443463    4.239789   11.723767    7.370903     0.651930   696.473872
  155    2.822458   12.726926    9.958752    7.307494     0.679820    25.143570
  156   10.046032    4.352856   10.062564    7.349267     0.681932    29.413769
  157    6.101346    1.856196   10.058530    7.316686     0.691245    29.485679
  158   12.051555    0.001553   11.582857    7.369383     0.686881   367.696081
  159    8.717353    2.193516    9.630142    7.470609     0.667367    29.948210
  160    4.887397    4.081114    9.632799    7.365237     0.668683    29.253969
  161   -1.434812    6.202905   10.054889    7.311968     0.685979    29.529180
  162   -1.254537   10.864735   10.046377    7.335180     0.700554    29.379146
  163    9.606571    8.801725    9.957079    7.308798     0.655666    25.189734
  164    1.100872    6.267095    9.621335    7.315713     0.661511    28.905074
  165   -2.463937    8.631836    9.616464    7.458660     0.663599    29.807941
  166    8.670445   10.433376   11.580692    7.371115     0.684166   367.493668
  167    5.903522    6.515710   10.058530    7.350102     0.671360    29.234438
  168    6.088045   10.549155   10.741776    7.285249     0.705709    25.195061
  169    2.691538    8.373357   10.050806    7.332709     0.670735    29.198927
  170    8.437810    6.444315    9.630486    7.366878     0.661612    29.550486
  171    4.901271    8.493349   11.710286    7.365314     0.643539   648.755065
  172    1.367246   10.537318    9.619023    7.318143     0.667859    29.171406
 --------------------------------------------------------------------------------
    VACUUM CHARGE:               0.0000
    VACUUM VOLUME:               0.0000
    NUMBER OF ELECTRONS:      1292.0001
