  93  93   0   0
  0.1016658E+02  0.9814900E-09  0.9814900E-09  0.9814900E-09  0.5000000E-15
  1.000000000000000E-004
  CAR 
 ice                                     
      9.75578714    -25.54193844  301     -1.89234740      1.00000000
    -25.542  0.0000E+00  0.0000E+00
    -25.424  0.0000E+00  0.0000E+00
    -25.307  0.0000E+00  0.0000E+00
    -25.189  0.0000E+00  0.0000E+00
    -25.071  0.0000E+00  0.0000E+00
    -24.954  0.0000E+00  0.0000E+00
    -24.836  0.0000E+00  0.0000E+00
    -24.718  0.0000E+00  0.0000E+00
    -24.601  0.0000E+00  0.0000E+00
    -24.483  0.0000E+00  0.0000E+00
    -24.365  0.3252E-02  0.3826E-03
    -24.248  0.3089E-01  0.4017E-02
    -24.130  0.3183E+00  0.4147E-01
    -24.012  0.2744E+01  0.3643E+00
    -23.895  0.8823E+01  0.1402E+01
    -23.777  0.4476E+01  0.1929E+01
    -23.659  0.1148E+01  0.2064E+01
    -23.542  0.4272E+01  0.2567E+01
    -23.424  0.9736E+01  0.3713E+01
    -23.306  0.9487E+01  0.4829E+01
    -23.189  0.1802E+02  0.6949E+01
    -23.071  0.1365E+02  0.8560E+01
    -22.953  0.1424E+02  0.1024E+02
    -22.836  0.1153E+02  0.1160E+02
    -22.718  0.3676E+01  0.1203E+02
    -22.600  0.5583E+01  0.1269E+02
    -22.483  0.2308E+02  0.1541E+02
    -22.365  0.3276E+02  0.1926E+02
    -22.247  0.3015E+02  0.2281E+02
    -22.130  0.2490E+02  0.2574E+02
    -22.012  0.2132E+02  0.2826E+02
    -21.895  0.2364E+02  0.3104E+02
    -21.777  0.2627E+02  0.3414E+02
    -21.659  0.2394E+02  0.3696E+02
    -21.542  0.1191E+02  0.3837E+02
    -21.424  0.2019E+02  0.4075E+02
    -21.306  0.2976E+02  0.4425E+02
    -21.189  0.2371E+02  0.4704E+02
    -21.071  0.3026E+02  0.5060E+02
    -20.953  0.2357E+02  0.5338E+02
    -20.836  0.7950E+01  0.5432E+02
    -20.718  0.9403E+01  0.5543E+02
    -20.600  0.4297E+01  0.5594E+02
    -20.483  0.1680E+01  0.5614E+02
    -20.365  0.6591E+01  0.5692E+02
    -20.247  0.8334E+01  0.5790E+02
    -20.130  0.6928E+01  0.5872E+02
    -20.012  0.8624E+01  0.5973E+02
    -19.894  0.3113E+01  0.6010E+02
    -19.777  0.6278E+01  0.6084E+02
    -19.659  0.7888E+01  0.6177E+02
    -19.541  0.1764E+01  0.6198E+02
    -19.424  0.1895E+00  0.6200E+02
    -19.306  0.0000E+00  0.6200E+02
    -19.188  0.0000E+00  0.6200E+02
    -19.071  0.0000E+00  0.6200E+02
    -18.953  0.0000E+00  0.6200E+02
    -18.835  0.0000E+00  0.6200E+02
    -18.718  0.0000E+00  0.6200E+02
    -18.600  0.0000E+00  0.6200E+02
    -18.482  0.0000E+00  0.6200E+02
    -18.365  0.0000E+00  0.6200E+02
    -18.247  0.0000E+00  0.6200E+02
    -18.129  0.0000E+00  0.6200E+02
    -18.012  0.0000E+00  0.6200E+02
    -17.894  0.0000E+00  0.6200E+02
    -17.776  0.0000E+00  0.6200E+02
    -17.659  0.0000E+00  0.6200E+02
    -17.541  0.0000E+00  0.6200E+02
    -17.423  0.0000E+00  0.6200E+02
    -17.306  0.0000E+00  0.6200E+02
    -17.188  0.0000E+00  0.6200E+02
    -17.070  0.0000E+00  0.6200E+02
    -16.953  0.0000E+00  0.6200E+02
    -16.835  0.0000E+00  0.6200E+02
    -16.718  0.0000E+00  0.6200E+02
    -16.600  0.0000E+00  0.6200E+02
    -16.482  0.0000E+00  0.6200E+02
    -16.365  0.0000E+00  0.6200E+02
    -16.247  0.0000E+00  0.6200E+02
    -16.129  0.0000E+00  0.6200E+02
    -16.012  0.0000E+00  0.6200E+02
    -15.894  0.0000E+00  0.6200E+02
    -15.776  0.0000E+00  0.6200E+02
    -15.659  0.0000E+00  0.6200E+02
    -15.541  0.0000E+00  0.6200E+02
    -15.423  0.0000E+00  0.6200E+02
    -15.306  0.0000E+00  0.6200E+02
    -15.188  0.0000E+00  0.6200E+02
    -15.070  0.0000E+00  0.6200E+02
    -14.953  0.0000E+00  0.6200E+02
    -14.835  0.0000E+00  0.6200E+02
    -14.717  0.0000E+00  0.6200E+02
    -14.600  0.0000E+00  0.6200E+02
    -14.482  0.0000E+00  0.6200E+02
    -14.364  0.0000E+00  0.6200E+02
    -14.247  0.0000E+00  0.6200E+02
    -14.129  0.0000E+00  0.6200E+02
    -14.011  0.0000E+00  0.6200E+02
    -13.894  0.0000E+00  0.6200E+02
    -13.776  0.0000E+00  0.6200E+02
    -13.658  0.0000E+00  0.6200E+02
    -13.541  0.0000E+00  0.6200E+02
    -13.423  0.0000E+00  0.6200E+02
    -13.305  0.0000E+00  0.6200E+02
    -13.188  0.0000E+00  0.6200E+02
    -13.070  0.0000E+00  0.6200E+02
    -12.952  0.0000E+00  0.6200E+02
    -12.835  0.0000E+00  0.6200E+02
    -12.717  0.0000E+00  0.6200E+02
    -12.599  0.0000E+00  0.6200E+02
    -12.482  0.6994E-03  0.6200E+02
    -12.364  0.6655E-02  0.6200E+02
    -12.246  0.6969E-01  0.6201E+02
    -12.129  0.6999E+00  0.6209E+02
    -12.011  0.4918E+01  0.6267E+02
    -11.893  0.8608E+01  0.6368E+02
    -11.776  0.2425E+01  0.6397E+02
    -11.658  0.5457E+00  0.6403E+02
    -11.541  0.2658E+01  0.6435E+02
    -11.423  0.1512E+02  0.6613E+02
    -11.305  0.2270E+02  0.6880E+02
    -11.188  0.8950E+01  0.6985E+02
    -11.070  0.2240E+01  0.7012E+02
    -10.952  0.6214E+01  0.7085E+02
    -10.835  0.8073E+01  0.7180E+02
    -10.717  0.3967E+01  0.7227E+02
    -10.599  0.1305E+02  0.7380E+02
    -10.482  0.1946E+02  0.7610E+02
    -10.364  0.1774E+02  0.7818E+02
    -10.246  0.1951E+02  0.8048E+02
    -10.129  0.1711E+02  0.8250E+02
    -10.011  0.1627E+02  0.8442E+02
     -9.893  0.2682E+02  0.8757E+02
     -9.776  0.3542E+02  0.9174E+02
     -9.658  0.2846E+02  0.9510E+02
     -9.540  0.1887E+02  0.9732E+02
     -9.423  0.2697E+02  0.1005E+03
     -9.305  0.2164E+02  0.1031E+03
     -9.187  0.1084E+02  0.1043E+03
     -9.070  0.1984E+02  0.1067E+03
     -8.952  0.3405E+02  0.1107E+03
     -8.834  0.2469E+02  0.1136E+03
     -8.717  0.1927E+02  0.1159E+03
     -8.599  0.1742E+02  0.1179E+03
     -8.481  0.1467E+02  0.1196E+03
     -8.364  0.1289E+02  0.1212E+03
     -8.246  0.9332E+01  0.1223E+03
     -8.128  0.1517E+02  0.1240E+03
     -8.011  0.1987E+02  0.1264E+03
     -7.893  0.1430E+02  0.1281E+03
     -7.775  0.1321E+02  0.1296E+03
     -7.658  0.1535E+02  0.1314E+03
     -7.540  0.2354E+02  0.1342E+03
     -7.422  0.1674E+02  0.1362E+03
     -7.305  0.1761E+02  0.1383E+03
     -7.187  0.2628E+02  0.1414E+03
     -7.069  0.2709E+02  0.1445E+03
     -6.952  0.2054E+02  0.1470E+03
     -6.834  0.1938E+02  0.1492E+03
     -6.716  0.2281E+02  0.1519E+03
     -6.599  0.2410E+02  0.1548E+03
     -6.481  0.2007E+02  0.1571E+03
     -6.364  0.1690E+02  0.1591E+03
     -6.246  0.1669E+02  0.1611E+03
     -6.128  0.1918E+02  0.1634E+03
     -6.011  0.2585E+02  0.1664E+03
     -5.893  0.2586E+02  0.1694E+03
     -5.775  0.2329E+02  0.1722E+03
     -5.658  0.2638E+02  0.1753E+03
     -5.540  0.2784E+02  0.1786E+03
     -5.422  0.2588E+02  0.1816E+03
     -5.305  0.2945E+02  0.1851E+03
     -5.187  0.2326E+02  0.1878E+03
     -5.069  0.1981E+02  0.1902E+03
     -4.952  0.1284E+02  0.1917E+03
     -4.834  0.3704E+01  0.1921E+03
     -4.716  0.8543E+01  0.1931E+03
     -4.599  0.2307E+02  0.1959E+03
     -4.481  0.4101E+02  0.2007E+03
     -4.363  0.4695E+02  0.2062E+03
     -4.246  0.4096E+02  0.2110E+03
     -4.128  0.4192E+02  0.2160E+03
     -4.010  0.5306E+02  0.2222E+03
     -3.893  0.5477E+02  0.2287E+03
     -3.775  0.3875E+02  0.2332E+03
     -3.657  0.2746E+02  0.2365E+03
     -3.540  0.2651E+02  0.2396E+03
     -3.422  0.3245E+02  0.2434E+03
     -3.304  0.1876E+02  0.2456E+03
     -3.187  0.7207E+01  0.2465E+03
     -3.069  0.9226E+01  0.2476E+03
     -2.951  0.3098E+01  0.2480E+03
     -2.834  0.3703E+00  0.2480E+03
     -2.716  0.0000E+00  0.2480E+03
     -2.598  0.0000E+00  0.2480E+03
     -2.481  0.0000E+00  0.2480E+03
     -2.363  0.0000E+00  0.2480E+03
     -2.245  0.0000E+00  0.2480E+03
     -2.128  0.0000E+00  0.2480E+03
     -2.010  0.0000E+00  0.2480E+03
     -1.892  0.0000E+00  0.2480E+03
     -1.775  0.0000E+00  0.2480E+03
     -1.657  0.0000E+00  0.2480E+03
     -1.539  0.0000E+00  0.2480E+03
     -1.422  0.0000E+00  0.2480E+03
     -1.304  0.0000E+00  0.2480E+03
     -1.187  0.0000E+00  0.2480E+03
     -1.069  0.0000E+00  0.2480E+03
     -0.951  0.0000E+00  0.2480E+03
     -0.834  0.0000E+00  0.2480E+03
     -0.716  0.0000E+00  0.2480E+03
     -0.598  0.0000E+00  0.2480E+03
     -0.481  0.0000E+00  0.2480E+03
     -0.363  0.0000E+00  0.2480E+03
     -0.245  0.0000E+00  0.2480E+03
     -0.128  0.0000E+00  0.2480E+03
     -0.010  0.0000E+00  0.2480E+03
      0.108  0.7477E-06  0.2480E+03
      0.225  0.1520E-03  0.2480E+03
      0.343  0.1702E-02  0.2480E+03
      0.461  0.1793E-01  0.2480E+03
      0.578  0.1628E+00  0.2480E+03
      0.696  0.8408E+00  0.2481E+03
      0.814  0.2116E+01  0.2484E+03
      0.931  0.3777E+01  0.2488E+03
      1.049  0.4801E+01  0.2494E+03
      1.167  0.3664E+01  0.2498E+03
      1.284  0.1372E+01  0.2500E+03
      1.402  0.3165E+00  0.2500E+03
      1.520  0.7336E+00  0.2501E+03
      1.637  0.2657E+01  0.2504E+03
      1.755  0.5708E+01  0.2511E+03
      1.873  0.6435E+01  0.2518E+03
      1.990  0.5412E+01  0.2525E+03
      2.108  0.6553E+01  0.2532E+03
      2.226  0.5579E+01  0.2539E+03
      2.343  0.5753E+01  0.2546E+03
      2.461  0.7005E+01  0.2554E+03
      2.579  0.6343E+01  0.2562E+03
      2.696  0.5438E+01  0.2568E+03
      2.814  0.5582E+01  0.2575E+03
      2.932  0.6495E+01  0.2582E+03
      3.049  0.7906E+01  0.2592E+03
      3.167  0.9359E+01  0.2603E+03
      3.285  0.9403E+01  0.2614E+03
      3.402  0.8814E+01  0.2624E+03
      3.520  0.9349E+01  0.2635E+03
      3.638  0.1019E+02  0.2647E+03
      3.755  0.1123E+02  0.2660E+03
      3.873  0.1172E+02  0.2674E+03
      3.990  0.1354E+02  0.2690E+03
      4.108  0.1420E+02  0.2707E+03
      4.226  0.1419E+02  0.2723E+03
      4.343  0.1345E+02  0.2739E+03
      4.461  0.1363E+02  0.2755E+03
      4.579  0.1474E+02  0.2773E+03
      4.696  0.1559E+02  0.2791E+03
      4.814  0.1581E+02  0.2810E+03
      4.932  0.1559E+02  0.2828E+03
      5.049  0.1656E+02  0.2848E+03
      5.167  0.1796E+02  0.2869E+03
      5.285  0.1972E+02  0.2892E+03
      5.402  0.2053E+02  0.2916E+03
      5.520  0.2059E+02  0.2940E+03
      5.638  0.2134E+02  0.2966E+03
      5.755  0.2182E+02  0.2991E+03
      5.873  0.2160E+02  0.3017E+03
      5.991  0.2242E+02  0.3043E+03
      6.108  0.2433E+02  0.3072E+03
      6.226  0.2524E+02  0.3101E+03
      6.344  0.2617E+02  0.3132E+03
      6.461  0.2619E+02  0.3163E+03
      6.579  0.2643E+02  0.3194E+03
      6.697  0.2549E+02  0.3224E+03
      6.814  0.2496E+02  0.3254E+03
      6.932  0.2459E+02  0.3283E+03
      7.050  0.2364E+02  0.3311E+03
      7.167  0.2227E+02  0.3337E+03
      7.285  0.2008E+02  0.3360E+03
      7.403  0.1817E+02  0.3382E+03
      7.520  0.1663E+02  0.3402E+03
      7.638  0.1372E+02  0.3418E+03
      7.756  0.1045E+02  0.3430E+03
      7.873  0.6038E+01  0.3437E+03
      7.991  0.1935E+01  0.3439E+03
      8.109  0.3869E+00  0.3440E+03
      8.226  0.5725E-01  0.3440E+03
      8.344  0.7689E-02  0.3440E+03
      8.462  0.6393E-03  0.3440E+03
      8.579  0.0000E+00  0.3440E+03
      8.697  0.0000E+00  0.3440E+03
      8.815  0.0000E+00  0.3440E+03
      8.932  0.0000E+00  0.3440E+03
      9.050  0.0000E+00  0.3440E+03
      9.167  0.0000E+00  0.3440E+03
      9.285  0.0000E+00  0.3440E+03
      9.403  0.0000E+00  0.3440E+03
      9.520  0.0000E+00  0.3440E+03
      9.638  0.0000E+00  0.3440E+03
      9.756  0.0000E+00  0.3440E+03
