Loading vasp/5.4.4-mpi-cuda
  Loading requirement: gcc/8.5.0 intel-compilers/19.0.4 cuda/10.1.1
    intel-mpi/2019.4
 running on   40 total cores
 distrk:  each k-point on   40 cores,    1 groups
 distr:  one band on   20 cores,    2 groups
 using from now: INCAR     
 vasp.5.4.4.18Apr17-6-g9f103f2a35 (build Dec 06 2019 17:20:26) complex          
  
 POSCAR found type information on POSCAR  O  H 
 POSCAR found :  2 types and      93 ions
 scaLAPACK will be used

 ----------------------------------------------------------------------------- 
|                                                                             |
|           W    W    AA    RRRRR   N    N  II  N    N   GGGG   !!!           |
|           W    W   A  A   R    R  NN   N  II  NN   N  G    G  !!!           |
|           W    W  A    A  R    R  N N  N  II  N N  N  G       !!!           |
|           W WW W  AAAAAA  RRRRR   N  N N  II  N  N N  G  GGG   !            |
|           WW  WW  A    A  R   R   N   NN  II  N   NN  G    G                |
|           W    W  A    A  R    R  N    N  II  N    N   GGGG   !!!           |
|                                                                             |
|      For optimal performance we recommend to set                            |
|        NCORE= 4 - approx SQRT( number of cores)                             |
|      NCORE specifies how many cores store one orbital (NPAR=cpu/NCORE).     |
|      This setting can  greatly improve the performance of VASP for DFT.     |
|      The default,   NCORE=1            might be grossly inefficient         |
|      on modern multi-core architectures or massively parallel machines.     |
|      Do your own testing !!!!                                               |
|      Unfortunately you need to use the default for GW and RPA calculations. |
|      (for HF NCORE is supported but not extensively tested yet)             |
|                                                                             |
 ----------------------------------------------------------------------------- 

 LDA part: xc-table for Pade appr. of Perdew
 POSCAR, INCAR and KPOINTS ok, starting setup
 FFT: planning ...
 WAVECAR not read
 WARNING: chargedensity file is incomplete
 WARNING: random wavefunctions but no delay for mixing, default for NELMDL
 entering main loop
       N       E                     dE             d eps       ncg     rms          rms(c)
RMM:   1     0.332011721823E+04    0.33201E+04   -0.74353E+04 86688   0.878E+02
RMM:   2     0.105167909808E+04   -0.22684E+04   -0.24356E+04 86688   0.253E+02
RMM:   3     0.900092675699E+02   -0.96167E+03   -0.10243E+04 86688   0.186E+02
RMM:   4    -0.342749355435E+03   -0.43276E+03   -0.36804E+03 86688   0.130E+02
RMM:   5    -0.451004481309E+03   -0.10826E+03   -0.98428E+02 86688   0.686E+01
RMM:   6    -0.478870386149E+03   -0.27866E+02   -0.25436E+02 86688   0.355E+01
RMM:   7    -0.486286517249E+03   -0.74161E+01   -0.71038E+01 86688   0.181E+01
RMM:   8    -0.488516751379E+03   -0.22302E+01   -0.21029E+01 86688   0.966E+00
RMM:   9    -0.489396354902E+03   -0.87960E+00   -0.86377E+00221703   0.513E+00
RMM:  10    -0.489518932348E+03   -0.12258E+00   -0.11560E+00235647   0.149E+00
RMM:  11    -0.489521147460E+03   -0.22151E-02   -0.38691E-02221803   0.316E-01
RMM:  12    -0.489521791523E+03   -0.64406E-03   -0.63186E-03223038   0.820E-02    0.395E+01
RMM:  13    -0.448608095292E+03    0.40914E+02   -0.14499E+02210189   0.242E+01    0.151E+01
RMM:  14    -0.447382608643E+03    0.12255E+01   -0.53793E+00218036   0.415E+00    0.955E+00
RMM:  15    -0.446861430293E+03    0.52118E+00   -0.16347E+00215455   0.354E+00    0.133E+00
RMM:  16    -0.446813449891E+03    0.47980E-01   -0.28154E-01221672   0.950E-01    0.531E-01
RMM:  17    -0.446818849846E+03   -0.54000E-02   -0.47020E-02209914   0.413E-01    0.334E-01
RMM:  18    -0.446814410678E+03    0.44392E-02   -0.10941E-02217811   0.229E-01    0.992E-02
RMM:  19    -0.446812993635E+03    0.14170E-02   -0.30784E-03218710   0.934E-02    0.393E-02
RMM:  20    -0.446812791414E+03    0.20222E-03   -0.60905E-04219895   0.390E-02    0.218E-02
RMM:  21    -0.446812761414E+03    0.30000E-04   -0.10639E-04220167   0.175E-02    0.104E-02
RMM:  22    -0.446812754987E+03    0.64272E-05   -0.25165E-05213976   0.944E-03    0.363E-03
RMM:  23    -0.446812754440E+03    0.54749E-06   -0.32197E-06173678   0.344E-03
   1 F= -.44987069E+03 E0= -.44987069E+03  d E =-.408988E-10
