  93  93   0   0
  0.1016658E+02  0.9814900E-09  0.9814900E-09  0.9814900E-09  0.5000000E-15
  1.000000000000000E-004
  CAR 
 ice                                     
      9.70800713    -25.28256910  301     -1.60538472      1.00000000
    -25.283  0.0000E+00  0.0000E+00
    -25.166  0.0000E+00  0.0000E+00
    -25.049  0.0000E+00  0.0000E+00
    -24.933  0.0000E+00  0.0000E+00
    -24.816  0.0000E+00  0.0000E+00
    -24.699  0.0000E+00  0.0000E+00
    -24.583  0.0000E+00  0.0000E+00
    -24.466  0.0000E+00  0.0000E+00
    -24.349  0.0000E+00  0.0000E+00
    -24.233  0.0000E+00  0.0000E+00
    -24.116  0.3330E-02  0.3884E-03
    -24.000  0.3383E-01  0.4334E-02
    -23.883  0.3412E+00  0.4413E-01
    -23.766  0.2954E+01  0.3886E+00
    -23.650  0.1136E+02  0.1713E+01
    -23.533  0.1519E+02  0.3485E+01
    -23.416  0.1609E+02  0.5361E+01
    -23.300  0.1630E+02  0.7262E+01
    -23.183  0.8848E+01  0.8295E+01
    -23.066  0.1219E+02  0.9718E+01
    -22.950  0.1899E+02  0.1193E+02
    -22.833  0.2485E+02  0.1483E+02
    -22.717  0.1957E+02  0.1712E+02
    -22.600  0.1536E+02  0.1891E+02
    -22.483  0.1430E+02  0.2058E+02
    -22.367  0.1431E+02  0.2225E+02
    -22.250  0.2184E+02  0.2480E+02
    -22.133  0.2465E+02  0.2768E+02
    -22.017  0.1845E+02  0.2983E+02
    -21.900  0.2193E+02  0.3239E+02
    -21.784  0.2855E+02  0.3573E+02
    -21.667  0.1924E+02  0.3797E+02
    -21.550  0.1735E+02  0.4000E+02
    -21.434  0.2967E+02  0.4347E+02
    -21.317  0.2288E+02  0.4614E+02
    -21.200  0.1281E+02  0.4763E+02
    -21.084  0.6656E+01  0.4842E+02
    -20.967  0.1030E+02  0.4962E+02
    -20.850  0.9998E+01  0.5079E+02
    -20.734  0.1269E+02  0.5227E+02
    -20.617  0.1835E+02  0.5442E+02
    -20.501  0.1234E+02  0.5586E+02
    -20.384  0.6947E+01  0.5667E+02
    -20.267  0.8766E+01  0.5769E+02
    -20.151  0.2695E+01  0.5801E+02
    -20.034  0.3205E+01  0.5838E+02
    -19.917  0.8922E+01  0.5943E+02
    -19.801  0.4572E+01  0.5996E+02
    -19.684  0.3073E+01  0.6032E+02
    -19.567  0.8719E+01  0.6134E+02
    -19.451  0.4890E+01  0.6191E+02
    -19.334  0.7059E+00  0.6199E+02
    -19.218  0.7175E-01  0.6200E+02
    -19.101  0.0000E+00  0.6200E+02
    -18.984  0.0000E+00  0.6200E+02
    -18.868  0.0000E+00  0.6200E+02
    -18.751  0.0000E+00  0.6200E+02
    -18.634  0.0000E+00  0.6200E+02
    -18.518  0.0000E+00  0.6200E+02
    -18.401  0.0000E+00  0.6200E+02
    -18.284  0.0000E+00  0.6200E+02
    -18.168  0.0000E+00  0.6200E+02
    -18.051  0.0000E+00  0.6200E+02
    -17.935  0.0000E+00  0.6200E+02
    -17.818  0.0000E+00  0.6200E+02
    -17.701  0.0000E+00  0.6200E+02
    -17.585  0.0000E+00  0.6200E+02
    -17.468  0.0000E+00  0.6200E+02
    -17.351  0.0000E+00  0.6200E+02
    -17.235  0.0000E+00  0.6200E+02
    -17.118  0.0000E+00  0.6200E+02
    -17.001  0.0000E+00  0.6200E+02
    -16.885  0.0000E+00  0.6200E+02
    -16.768  0.0000E+00  0.6200E+02
    -16.652  0.0000E+00  0.6200E+02
    -16.535  0.0000E+00  0.6200E+02
    -16.418  0.0000E+00  0.6200E+02
    -16.302  0.0000E+00  0.6200E+02
    -16.185  0.0000E+00  0.6200E+02
    -16.068  0.0000E+00  0.6200E+02
    -15.952  0.0000E+00  0.6200E+02
    -15.835  0.0000E+00  0.6200E+02
    -15.718  0.0000E+00  0.6200E+02
    -15.602  0.0000E+00  0.6200E+02
    -15.485  0.0000E+00  0.6200E+02
    -15.369  0.0000E+00  0.6200E+02
    -15.252  0.0000E+00  0.6200E+02
    -15.135  0.0000E+00  0.6200E+02
    -15.019  0.0000E+00  0.6200E+02
    -14.902  0.0000E+00  0.6200E+02
    -14.785  0.0000E+00  0.6200E+02
    -14.669  0.0000E+00  0.6200E+02
    -14.552  0.0000E+00  0.6200E+02
    -14.435  0.0000E+00  0.6200E+02
    -14.319  0.0000E+00  0.6200E+02
    -14.202  0.0000E+00  0.6200E+02
    -14.086  0.0000E+00  0.6200E+02
    -13.969  0.0000E+00  0.6200E+02
    -13.852  0.0000E+00  0.6200E+02
    -13.736  0.0000E+00  0.6200E+02
    -13.619  0.0000E+00  0.6200E+02
    -13.502  0.0000E+00  0.6200E+02
    -13.386  0.0000E+00  0.6200E+02
    -13.269  0.0000E+00  0.6200E+02
    -13.153  0.0000E+00  0.6200E+02
    -13.036  0.0000E+00  0.6200E+02
    -12.919  0.0000E+00  0.6200E+02
    -12.803  0.0000E+00  0.6200E+02
    -12.686  0.0000E+00  0.6200E+02
    -12.569  0.0000E+00  0.6200E+02
    -12.453  0.0000E+00  0.6200E+02
    -12.336  0.0000E+00  0.6200E+02
    -12.219  0.4686E-02  0.6200E+02
    -12.103  0.4368E-01  0.6201E+02
    -11.986  0.4399E+00  0.6206E+02
    -11.870  0.3506E+01  0.6247E+02
    -11.753  0.9416E+01  0.6356E+02
    -11.636  0.6954E+01  0.6438E+02
    -11.520  0.9608E+01  0.6550E+02
    -11.403  0.8023E+01  0.6644E+02
    -11.286  0.1486E+02  0.6817E+02
    -11.170  0.1557E+02  0.6999E+02
    -11.053  0.1276E+02  0.7148E+02
    -10.936  0.9528E+01  0.7259E+02
    -10.820  0.1725E+02  0.7461E+02
    -10.703  0.1326E+02  0.7615E+02
    -10.587  0.1153E+02  0.7750E+02
    -10.470  0.1353E+02  0.7908E+02
    -10.353  0.2808E+02  0.8236E+02
    -10.237  0.3260E+02  0.8616E+02
    -10.120  0.3053E+02  0.8972E+02
    -10.003  0.1931E+02  0.9198E+02
     -9.887  0.1277E+02  0.9347E+02
     -9.770  0.1202E+02  0.9488E+02
     -9.653  0.1168E+02  0.9624E+02
     -9.537  0.1706E+02  0.9823E+02
     -9.420  0.1915E+02  0.1005E+03
     -9.304  0.1318E+02  0.1020E+03
     -9.187  0.1286E+02  0.1035E+03
     -9.070  0.1897E+02  0.1057E+03
     -8.954  0.2871E+02  0.1091E+03
     -8.837  0.2069E+02  0.1115E+03
     -8.720  0.1090E+02  0.1128E+03
     -8.604  0.1986E+02  0.1151E+03
     -8.487  0.2615E+02  0.1181E+03
     -8.370  0.2202E+02  0.1207E+03
     -8.254  0.1031E+02  0.1219E+03
     -8.137  0.7626E+01  0.1228E+03
     -8.021  0.1868E+02  0.1250E+03
     -7.904  0.2304E+02  0.1277E+03
     -7.787  0.1747E+02  0.1297E+03
     -7.671  0.1639E+02  0.1316E+03
     -7.554  0.2133E+02  0.1341E+03
     -7.437  0.2564E+02  0.1371E+03
     -7.321  0.2215E+02  0.1397E+03
     -7.204  0.2078E+02  0.1421E+03
     -7.087  0.2276E+02  0.1448E+03
     -6.971  0.2011E+02  0.1471E+03
     -6.854  0.1992E+02  0.1495E+03
     -6.738  0.2336E+02  0.1522E+03
     -6.621  0.2413E+02  0.1550E+03
     -6.504  0.2055E+02  0.1574E+03
     -6.388  0.1659E+02  0.1594E+03
     -6.271  0.1487E+02  0.1611E+03
     -6.154  0.1736E+02  0.1631E+03
     -6.038  0.1890E+02  0.1653E+03
     -5.921  0.2034E+02  0.1677E+03
     -5.804  0.2333E+02  0.1704E+03
     -5.688  0.2520E+02  0.1734E+03
     -5.571  0.2184E+02  0.1759E+03
     -5.455  0.2886E+02  0.1793E+03
     -5.338  0.2897E+02  0.1827E+03
     -5.221  0.3099E+02  0.1863E+03
     -5.105  0.3123E+02  0.1899E+03
     -4.988  0.2742E+02  0.1931E+03
     -4.871  0.2886E+02  0.1965E+03
     -4.755  0.2791E+02  0.1998E+03
     -4.638  0.2062E+02  0.2022E+03
     -4.521  0.2863E+02  0.2055E+03
     -4.405  0.4377E+02  0.2106E+03
     -4.288  0.3534E+02  0.2148E+03
     -4.172  0.2778E+02  0.2180E+03
     -4.055  0.2807E+02  0.2213E+03
     -3.938  0.3151E+02  0.2250E+03
     -3.822  0.3333E+02  0.2289E+03
     -3.705  0.3757E+02  0.2332E+03
     -3.588  0.3443E+02  0.2373E+03
     -3.472  0.1973E+02  0.2396E+03
     -3.355  0.1251E+02  0.2410E+03
     -3.239  0.1922E+02  0.2433E+03
     -3.122  0.1514E+02  0.2451E+03
     -3.005  0.7110E+01  0.2459E+03
     -2.889  0.2770E+01  0.2462E+03
     -2.772  0.7885E+01  0.2471E+03
     -2.655  0.6248E+01  0.2479E+03
     -2.539  0.1063E+01  0.2480E+03
     -2.422  0.1107E+00  0.2480E+03
     -2.305  0.0000E+00  0.2480E+03
     -2.189  0.0000E+00  0.2480E+03
     -2.072  0.0000E+00  0.2480E+03
     -1.956  0.0000E+00  0.2480E+03
     -1.839  0.0000E+00  0.2480E+03
     -1.722  0.0000E+00  0.2480E+03
     -1.606  0.0000E+00  0.2480E+03
     -1.489  0.0000E+00  0.2480E+03
     -1.372  0.0000E+00  0.2480E+03
     -1.256  0.0000E+00  0.2480E+03
     -1.139  0.0000E+00  0.2480E+03
     -1.022  0.0000E+00  0.2480E+03
     -0.906  0.0000E+00  0.2480E+03
     -0.789  0.0000E+00  0.2480E+03
     -0.673  0.0000E+00  0.2480E+03
     -0.556  0.0000E+00  0.2480E+03
     -0.439  0.0000E+00  0.2480E+03
     -0.323  0.0000E+00  0.2480E+03
     -0.206  0.0000E+00  0.2480E+03
     -0.089  0.0000E+00  0.2480E+03
      0.027  0.0000E+00  0.2480E+03
      0.144  0.0000E+00  0.2480E+03
      0.261  0.2004E-04  0.2480E+03
      0.377  0.3330E-03  0.2480E+03
      0.494  0.3535E-02  0.2480E+03
      0.610  0.3495E-01  0.2480E+03
      0.727  0.2594E+00  0.2480E+03
      0.844  0.8997E+00  0.2481E+03
      0.960  0.1647E+01  0.2483E+03
      1.077  0.2399E+01  0.2486E+03
      1.194  0.3107E+01  0.2490E+03
      1.310  0.3270E+01  0.2494E+03
      1.427  0.3100E+01  0.2497E+03
      1.544  0.3179E+01  0.2501E+03
      1.660  0.4189E+01  0.2506E+03
      1.777  0.5356E+01  0.2512E+03
      1.893  0.4615E+01  0.2517E+03
      2.010  0.3650E+01  0.2522E+03
      2.127  0.4830E+01  0.2527E+03
      2.243  0.6150E+01  0.2535E+03
      2.360  0.6670E+01  0.2542E+03
      2.477  0.6792E+01  0.2550E+03
      2.593  0.7452E+01  0.2559E+03
      2.710  0.7997E+01  0.2568E+03
      2.827  0.7796E+01  0.2577E+03
      2.943  0.7349E+01  0.2586E+03
      3.060  0.7565E+01  0.2595E+03
      3.176  0.8035E+01  0.2604E+03
      3.293  0.9523E+01  0.2615E+03
      3.410  0.1020E+02  0.2627E+03
      3.526  0.9471E+01  0.2638E+03
      3.643  0.9648E+01  0.2650E+03
      3.760  0.1071E+02  0.2662E+03
      3.876  0.1236E+02  0.2676E+03
      3.993  0.1392E+02  0.2693E+03
      4.110  0.1387E+02  0.2709E+03
      4.226  0.1373E+02  0.2725E+03
      4.343  0.1443E+02  0.2742E+03
      4.459  0.1527E+02  0.2760E+03
      4.576  0.1493E+02  0.2777E+03
      4.693  0.1458E+02  0.2794E+03
      4.809  0.1548E+02  0.2812E+03
      4.926  0.1618E+02  0.2831E+03
      5.043  0.1788E+02  0.2852E+03
      5.159  0.1887E+02  0.2874E+03
      5.276  0.1911E+02  0.2896E+03
      5.393  0.1905E+02  0.2919E+03
      5.509  0.2097E+02  0.2943E+03
      5.626  0.2260E+02  0.2969E+03
      5.742  0.2280E+02  0.2996E+03
      5.859  0.2345E+02  0.3023E+03
      5.976  0.2395E+02  0.3051E+03
      6.092  0.2429E+02  0.3080E+03
      6.209  0.2547E+02  0.3109E+03
      6.326  0.2636E+02  0.3140E+03
      6.442  0.2646E+02  0.3171E+03
      6.559  0.2565E+02  0.3201E+03
      6.675  0.2539E+02  0.3231E+03
      6.792  0.2479E+02  0.3260E+03
      6.909  0.2320E+02  0.3287E+03
      7.025  0.2153E+02  0.3312E+03
      7.142  0.2116E+02  0.3337E+03
      7.259  0.2021E+02  0.3360E+03
      7.375  0.1864E+02  0.3382E+03
      7.492  0.1656E+02  0.3401E+03
      7.609  0.1417E+02  0.3418E+03
      7.725  0.1078E+02  0.3431E+03
      7.842  0.5892E+01  0.3437E+03
      7.958  0.1775E+01  0.3440E+03
      8.075  0.2977E+00  0.3440E+03
      8.192  0.4293E-01  0.3440E+03
      8.308  0.6443E-02  0.3440E+03
      8.425  0.6649E-03  0.3440E+03
      8.542  0.0000E+00  0.3440E+03
      8.658  0.0000E+00  0.3440E+03
      8.775  0.0000E+00  0.3440E+03
      8.892  0.0000E+00  0.3440E+03
      9.008  0.0000E+00  0.3440E+03
      9.125  0.0000E+00  0.3440E+03
      9.241  0.0000E+00  0.3440E+03
      9.358  0.0000E+00  0.3440E+03
      9.475  0.0000E+00  0.3440E+03
      9.591  0.0000E+00  0.3440E+03
      9.708  0.0000E+00  0.3440E+03
