Loading vasp/5.4.4-mpi-cuda
  Loading requirement: gcc/8.5.0 intel-compilers/19.0.4 cuda/10.1.1
    intel-mpi/2019.4
 running on   40 total cores
 distrk:  each k-point on   40 cores,    1 groups
 distr:  one band on   20 cores,    2 groups
 using from now: INCAR     
 vasp.5.4.4.18Apr17-6-g9f103f2a35 (build Dec 06 2019 17:20:26) complex          
  
 POSCAR found type information on POSCAR  O  H 
 POSCAR found :  2 types and      93 ions
 scaLAPACK will be used

 ----------------------------------------------------------------------------- 
|                                                                             |
|           W    W    AA    RRRRR   N    N  II  N    N   GGGG   !!!           |
|           W    W   A  A   R    R  NN   N  II  NN   N  G    G  !!!           |
|           W    W  A    A  R    R  N N  N  II  N N  N  G       !!!           |
|           W WW W  AAAAAA  RRRRR   N  N N  II  N  N N  G  GGG   !            |
|           WW  WW  A    A  R   R   N   NN  II  N   NN  G    G                |
|           W    W  A    A  R    R  N    N  II  N    N   GGGG   !!!           |
|                                                                             |
|      For optimal performance we recommend to set                            |
|        NCORE= 4 - approx SQRT( number of cores)                             |
|      NCORE specifies how many cores store one orbital (NPAR=cpu/NCORE).     |
|      This setting can  greatly improve the performance of VASP for DFT.     |
|      The default,   NCORE=1            might be grossly inefficient         |
|      on modern multi-core architectures or massively parallel machines.     |
|      Do your own testing !!!!                                               |
|      Unfortunately you need to use the default for GW and RPA calculations. |
|      (for HF NCORE is supported but not extensively tested yet)             |
|                                                                             |
 ----------------------------------------------------------------------------- 

 LDA part: xc-table for Pade appr. of Perdew
 POSCAR, INCAR and KPOINTS ok, starting setup
 FFT: planning ...
 WAVECAR not read
 WARNING: chargedensity file is incomplete
 WARNING: random wavefunctions but no delay for mixing, default for NELMDL
 entering main loop
       N       E                     dE             d eps       ncg     rms          rms(c)
RMM:   1     0.331825231972E+04    0.33183E+04   -0.74357E+04 86688   0.878E+02
RMM:   2     0.104967695916E+04   -0.22686E+04   -0.24343E+04 86688   0.253E+02
RMM:   3     0.858656697380E+02   -0.96381E+03   -0.10242E+04 86688   0.187E+02
RMM:   4    -0.344338269778E+03   -0.43020E+03   -0.36588E+03 86688   0.130E+02
RMM:   5    -0.451313409916E+03   -0.10698E+03   -0.97516E+02 86688   0.684E+01
RMM:   6    -0.478870239656E+03   -0.27557E+02   -0.25166E+02 86688   0.353E+01
RMM:   7    -0.486210571949E+03   -0.73403E+01   -0.70280E+01 86688   0.180E+01
RMM:   8    -0.488417439043E+03   -0.22069E+01   -0.20799E+01 86688   0.960E+00
RMM:   9    -0.489287453509E+03   -0.87001E+00   -0.85417E+00221741   0.510E+00
RMM:  10    -0.489408693149E+03   -0.12124E+00   -0.11419E+00235731   0.148E+00
RMM:  11    -0.489410903921E+03   -0.22108E-02   -0.38130E-02221810   0.312E-01
RMM:  12    -0.489411538653E+03   -0.63473E-03   -0.62236E-03223160   0.812E-02    0.396E+01
RMM:  13    -0.448210806974E+03    0.41201E+02   -0.14624E+02209468   0.243E+01    0.152E+01
RMM:  14    -0.446998338231E+03    0.12125E+01   -0.53567E+00218073   0.414E+00    0.960E+00
RMM:  15    -0.446491022510E+03    0.50732E+00   -0.16548E+00214669   0.357E+00    0.136E+00
RMM:  16    -0.446444743905E+03    0.46279E-01   -0.29813E-01221760   0.978E-01    0.531E-01
RMM:  17    -0.446451943227E+03   -0.71993E-02   -0.41949E-02208407   0.399E-01    0.303E-01
RMM:  18    -0.446448908177E+03    0.30351E-02   -0.88196E-03216880   0.202E-01    0.916E-02
RMM:  19    -0.446447834061E+03    0.10741E-02   -0.27847E-03217934   0.884E-02    0.385E-02
RMM:  20    -0.446447648528E+03    0.18553E-03   -0.48841E-04220684   0.354E-02    0.210E-02
RMM:  21    -0.446447611527E+03    0.37001E-04   -0.94682E-05220577   0.164E-02    0.889E-03
RMM:  22    -0.446447604833E+03    0.66938E-05   -0.22977E-05207126   0.849E-03    0.423E-03
RMM:  23    -0.446447604446E+03    0.38771E-06   -0.70722E-06201697   0.529E-03
   1 F= -.44953186E+03 E0= -.44953186E+03  d E =-.138820E-09
