 vasp.5.4.4.18Apr17-6-g9f103f2a35 (build Dec 06 2019 17:20:26) complex          
  
 executed on             LinuxIFC date 2025.07.03  17:37:51
 running on   40 total cores
 distrk:  each k-point on   40 cores,    1 groups
 distr:  one band on NCORES_PER_BAND=  20 cores,    2 groups


--------------------------------------------------------------------------------------------------------


 INCAR:
 POTCAR:    PAW_PBE O 08Apr2002                   
 POTCAR:    PAW_PBE H 15Jun2001                   

 ----------------------------------------------------------------------------- 
|                                                                             |
|           W    W    AA    RRRRR   N    N  II  N    N   GGGG   !!!           |
|           W    W   A  A   R    R  NN   N  II  NN   N  G    G  !!!           |
|           W    W  A    A  R    R  N N  N  II  N N  N  G       !!!           |
|           W WW W  AAAAAA  RRRRR   N  N N  II  N  N N  G  GGG   !            |
|           WW  WW  A    A  R   R   N   NN  II  N   NN  G    G                |
|           W    W  A    A  R    R  N    N  II  N    N   GGGG   !!!           |
|                                                                             |
|      For optimal performance we recommend to set                            |
|        NCORE= 4 - approx SQRT( number of cores)                             |
|      NCORE specifies how many cores store one orbital (NPAR=cpu/NCORE).     |
|      This setting can  greatly improve the performance of VASP for DFT.     |
|      The default,   NCORE=1            might be grossly inefficient         |
|      on modern multi-core architectures or massively parallel machines.     |
|      Do your own testing !!!!                                               |
|      Unfortunately you need to use the default for GW and RPA calculations. |
|      (for HF NCORE is supported but not extensively tested yet)             |
|                                                                             |
 ----------------------------------------------------------------------------- 

 POTCAR:    PAW_PBE O 08Apr2002                   
  local pseudopotential read in
  partial core-charges read in
  partial kinetic energy density read in
  kinetic energy density of atom read in
  atomic valenz-charges read in
  non local Contribution for L=           0  read in
    real space projection operators read in
  non local Contribution for L=           0  read in
    real space projection operators read in
  non local Contribution for L=           1  read in
    real space projection operators read in
  non local Contribution for L=           1  read in
    real space projection operators read in
    PAW grid and wavefunctions read in
 
   number of l-projection  operators is LMAX  =           4
   number of lm-projection operators is LMMAX =           8
 
 POTCAR:    PAW_PBE H 15Jun2001                   
  local pseudopotential read in
  atomic valenz-charges read in
  non local Contribution for L=           0  read in
    real space projection operators read in
  non local Contribution for L=           0  read in
    real space projection operators read in
  non local Contribution for L=           1  read in
    real space projection operators read in
    PAW grid and wavefunctions read in
 
   number of l-projection  operators is LMAX  =           3
   number of lm-projection operators is LMMAX =           5
 
 Optimization of the real space projectors (new method)

 maximal supplied QI-value         = 24.76
 optimisation between [QCUT,QGAM] = [ 10.15, 20.30] = [ 28.85,115.39] Ry 
 Optimized for a Real-space Cutoff    1.38 Angstroem

   l    n(q)    QCUT    max X(q) W(low)/X(q) W(high)/X(q)  e(spline) 
   0      8    10.150    20.381    0.22E-03    0.32E-03    0.29E-06
   0      8    10.150    15.268    0.23E-03    0.35E-03    0.30E-06
   1      8    10.150     5.964    0.46E-03    0.53E-03    0.21E-06
   1      8    10.150     5.382    0.38E-03    0.45E-03    0.19E-06
 Optimization of the real space projectors (new method)

 maximal supplied QI-value         = 34.20
 optimisation between [QCUT,QGAM] = [  9.92, 20.18] = [ 27.55,114.04] Ry 
 Optimized for a Real-space Cutoff    1.26 Angstroem

   l    n(q)    QCUT    max X(q) W(low)/X(q) W(high)/X(q)  e(spline) 
   0      8     9.919    19.460    0.50E-03    0.23E-03    0.29E-06
   0      8     9.919    12.209    0.48E-03    0.23E-03    0.28E-06
   1      7     9.919     4.655    0.17E-03    0.75E-03    0.30E-06
  PAW_PBE O 08Apr2002                   :
 energy of atom  1       EATOM= -432.3788
 kinetic energy error for atom=    0.1156 (will be added to EATOM!!)
  PAW_PBE H 15Jun2001                   :
 energy of atom  2       EATOM=  -12.4884
 kinetic energy error for atom=    0.0098 (will be added to EATOM!!)
 
 
 POSCAR: # 4                                     
  positions in cartesian coordinates
  No initial velocities read in
 exchange correlation table for  LEXCH =        8
   RHO(1)=    0.500       N(1)  =     2000
   RHO(2)=  100.500       N(2)  =     4000
 


--------------------------------------------------------------------------------------------------------


 ion  position               nearest neighbor table
   1  0.580  0.385  0.130-  32 0.96  33 1.10
   2  0.127  0.811  0.608-  34 0.98  35 1.04
   3  0.086  0.563  0.752-  37 0.96  36 1.02  88 1.41
   4  0.070  0.383  0.407-  38 1.03  39 1.05
   5  0.070  0.764  0.167-  40 0.92  41 0.93
   6  0.720  0.393  0.757-  42 0.95  43 1.07
   7  0.575  0.191  0.791-  45 0.90  44 0.99
   8  0.014  0.214  0.184-  46 0.91  47 1.08
   9  0.280  0.858  0.978-  49 1.02  48 1.11
  10  0.840  0.393  0.022-  50 0.98  51 1.02
  11  0.272  0.213  0.706-  52 0.92  53 0.97
  12  0.963  0.331  0.671-  54 0.95  55 1.03
  13  0.727  0.816  0.871-  56 0.99  57 1.05
  14  0.677  0.044  0.434-  58 0.99  59 1.12
  15  0.346  0.610  0.850-  61 1.07  60 1.12
  16  0.232  0.137  0.951-  63 0.92  62 1.07
  17  0.466  0.141  0.092-  64 0.96  65 0.98
  18  0.683  0.654  0.419-  67 0.94  66 1.15
  19  0.844  0.949  0.237-  69 1.12  68 1.13
  20  0.342  0.363  0.440-  70 0.92  71 1.07
  21  0.413  0.119  0.379-  73 1.04  72 1.04
  22  0.004  0.046  0.631-  75 0.97  74 1.02
  23  0.145  0.036  0.373-  76 1.11  77 1.16
  24  0.374  0.834  0.500-  79 1.02  78 1.04
  25  0.354  0.544  0.113-  80 0.95  81 1.07
  26  0.466  0.735  0.262-  82 0.94  83 0.96
  27  0.555  0.652  0.712-  85 1.01  84 1.02
  28  0.637  0.357  0.399-  87 0.92  86 1.02
  29  0.935  0.654  0.952-  89 1.07  88 1.21
  30  0.602  0.911  0.098-  91 0.91  90 1.07
  31  0.972  0.665  0.399-  93 0.97  92 1.01
  32  0.534  0.470  0.122-   1 0.96
  33  0.678  0.407  0.082-   1 1.10
  34  0.068  0.797  0.529-   2 0.98
  35  0.113  0.725  0.669-   2 1.04
  36  0.049  0.466  0.749-   3 1.02
  37  0.170  0.574  0.801-   3 0.96
  38  0.172  0.407  0.407-   4 1.03
  39  0.029  0.353  0.501-   4 1.05
  40  0.040  0.850  0.189-   5 0.92
  41  0.049  0.721  0.249-   5 0.93
  42  0.677  0.461  0.704-   6 0.95
  43  0.650  0.324  0.806-   6 1.07
  44  0.514  0.167  0.867-   7 0.99
  45  0.626  0.115  0.785-   7 0.90
  46  0.938  0.257  0.150-   8 0.91
  47  0.046  0.258  0.279-   8 1.08
  48  0.249  0.967  0.969-   9 1.11
  49  0.231  0.814  0.058-   9 1.02
  50  0.804  0.400  0.929-  10 0.98
  51  0.861  0.494  0.023-  10 1.02
  52  0.181  0.196  0.691-  11 0.92
  53  0.295  0.274  0.632-  11 0.97
  54  0.986  0.238  0.656-  12 0.95
  55  0.862  0.310  0.688-  12 1.03
  56  0.685  0.845  0.959-  13 0.99
  57  0.793  0.745  0.916-  13 1.05
  58  0.691  0.142  0.414-  14 0.99
  59  0.564  0.050  0.416-  14 1.12
  60  0.358  0.570  0.956-  15 1.12
  61  0.304  0.703  0.888-  15 1.07
  62  0.236  0.193  0.857-  16 1.07
  63  0.166  0.164  0.011-  16 0.92
  64  0.375  0.134  0.058-  17 0.96
  65  0.476  0.237  0.116-  17 0.98
  66  0.637  0.630  0.524-  18 1.15
  67  0.605  0.673  0.367-  18 0.94
  68  0.904  0.033  0.185-  19 1.13
  69  0.757  0.982  0.304-  19 1.12
  70  0.409  0.422  0.468-  20 0.92
  71  0.390  0.267  0.421-  20 1.07
  72  0.310  0.098  0.364-  21 1.04
  73  0.429  0.105  0.275-  21 1.04
  74  0.903  0.022  0.643-  22 1.02
  75  0.062  0.965  0.630-  22 0.97
  76  0.068  0.036  0.291-  23 1.11
  77  0.075  0.049  0.467-  23 1.16
  78  0.292  0.798  0.557-  24 1.04
  79  0.445  0.815  0.573-  24 1.02
  80  0.394  0.618  0.158-  25 0.95
  81  0.292  0.473  0.168-  25 1.07
  82  0.431  0.755  0.349-  26 0.94
  83  0.487  0.807  0.199-  26 0.96
  84  0.598  0.691  0.798-  27 1.02
  85  0.463  0.640  0.756-  27 1.01
  86  0.618  0.377  0.299-  28 1.02
  87  0.670  0.444  0.397-  28 0.92
  88  0.007  0.619  0.859-  29 1.21   3 1.41
  89  0.990  0.708  0.028-  29 1.07
  90  0.557  0.010  0.089-  30 1.07
  91  0.690  0.918  0.125-  30 0.91
  92  0.870  0.653  0.408-  31 1.01
  93  0.005  0.572  0.407-  31 0.97
 
  LATTYP: Found a simple cubic cell.
 ALAT       =     9.8149000000
  
  Lattice vectors:
  
 A1 = (   9.8149000000,   0.0000000000,   0.0000000000)
 A2 = (   0.0000000000,   9.8149000000,   0.0000000000)
 A3 = (   0.0000000000,   0.0000000000,   9.8149000000)


Analysis of symmetry for initial positions (statically):
=====================================================================
 Subroutine PRICEL returns:
 Original cell was already a primitive cell.
 

 Routine SETGRP: Setting up the symmetry group for a 
 simple cubic supercell.


 Subroutine GETGRP returns: Found  1 space group operations
 (whereof  1 operations were pure point group operations)
 out of a pool of 48 trial point group operations.


The static configuration has the point symmetry C_1 .


Analysis of symmetry for dynamics (positions and initial velocities):
=====================================================================
 Subroutine PRICEL returns:
 Original cell was already a primitive cell.
 

 Routine SETGRP: Setting up the symmetry group for a 
 simple cubic supercell.


 Subroutine GETGRP returns: Found  1 space group operations
 (whereof  1 operations were pure point group operations)
 out of a pool of 48 trial point group operations.


The dynamic configuration has the point symmetry C_1 .


 Subroutine INISYM returns: Found  1 space group operations
 (whereof  1 operations are pure point group operations),
 and found     1 'primitive' translations

 
 
 KPOINTS: automatic mesh                          

Automatic generation of k-mesh.
Space group operators:
 irot       det(A)        alpha          n_x          n_y          n_z        tau_x        tau_y        tau_z
    1     1.000000     0.000000     1.000000     0.000000     0.000000     0.000000     0.000000     0.000000
 
 Subroutine IBZKPT returns following result:
 ===========================================
 
 Found    504 irreducible k-points:
 
 Following reciprocal coordinates:
            Coordinates               Weight
  0.000000  0.000000  0.000000      1.000000
  0.100000  0.000000  0.000000      2.000000
  0.200000  0.000000  0.000000      2.000000
  0.300000  0.000000  0.000000      2.000000
  0.400000  0.000000  0.000000      2.000000
  0.500000  0.000000  0.000000      1.000000
  0.000000  0.100000  0.000000      2.000000
  0.100000  0.100000  0.000000      2.000000
  0.200000  0.100000  0.000000      2.000000
  0.300000  0.100000  0.000000      2.000000
  0.400000  0.100000  0.000000      2.000000
  0.500000  0.100000  0.000000      2.000000
 -0.400000  0.100000  0.000000      2.000000
 -0.300000  0.100000  0.000000      2.000000
 -0.200000  0.100000  0.000000      2.000000
 -0.100000  0.100000  0.000000      2.000000
  0.000000  0.200000  0.000000      2.000000
  0.100000  0.200000  0.000000      2.000000
  0.200000  0.200000  0.000000      2.000000
  0.300000  0.200000  0.000000      2.000000
  0.400000  0.200000  0.000000      2.000000
  0.500000  0.200000  0.000000      2.000000
 -0.400000  0.200000  0.000000      2.000000
 -0.300000  0.200000  0.000000      2.000000
 -0.200000  0.200000  0.000000      2.000000
 -0.100000  0.200000  0.000000      2.000000
  0.000000  0.300000  0.000000      2.000000
  0.100000  0.300000  0.000000      2.000000
  0.200000  0.300000  0.000000      2.000000
  0.300000  0.300000  0.000000      2.000000
  0.400000  0.300000  0.000000      2.000000
  0.500000  0.300000  0.000000      2.000000
 -0.400000  0.300000  0.000000      2.000000
 -0.300000  0.300000  0.000000      2.000000
 -0.200000  0.300000  0.000000      2.000000
 -0.100000  0.300000  0.000000      2.000000
  0.000000  0.400000  0.000000      2.000000
  0.100000  0.400000  0.000000      2.000000
  0.200000  0.400000  0.000000      2.000000
  0.300000  0.400000  0.000000      2.000000
  0.400000  0.400000  0.000000      2.000000
  0.500000  0.400000  0.000000      2.000000
 -0.400000  0.400000  0.000000      2.000000
 -0.300000  0.400000  0.000000      2.000000
 -0.200000  0.400000  0.000000      2.000000
 -0.100000  0.400000  0.000000      2.000000
  0.000000  0.500000  0.000000      1.000000
  0.100000  0.500000  0.000000      2.000000
  0.200000  0.500000  0.000000      2.000000
  0.300000  0.500000  0.000000      2.000000
  0.400000  0.500000  0.000000      2.000000
  0.500000  0.500000  0.000000      1.000000
  0.000000  0.000000  0.100000      2.000000
  0.100000  0.000000  0.100000      2.000000
  0.200000  0.000000  0.100000      2.000000
  0.300000  0.000000  0.100000      2.000000
  0.400000  0.000000  0.100000      2.000000
  0.500000  0.000000  0.100000      2.000000
 -0.400000  0.000000  0.100000      2.000000
 -0.300000  0.000000  0.100000      2.000000
 -0.200000  0.000000  0.100000      2.000000
 -0.100000  0.000000  0.100000      2.000000
  0.000000  0.100000  0.100000      2.000000
  0.100000  0.100000  0.100000      2.000000
  0.200000  0.100000  0.100000      2.000000
  0.300000  0.100000  0.100000      2.000000
  0.400000  0.100000  0.100000      2.000000
  0.500000  0.100000  0.100000      2.000000
 -0.400000  0.100000  0.100000      2.000000
 -0.300000  0.100000  0.100000      2.000000
 -0.200000  0.100000  0.100000      2.000000
 -0.100000  0.100000  0.100000      2.000000
  0.000000  0.200000  0.100000      2.000000
  0.100000  0.200000  0.100000      2.000000
  0.200000  0.200000  0.100000      2.000000
  0.300000  0.200000  0.100000      2.000000
  0.400000  0.200000  0.100000      2.000000
  0.500000  0.200000  0.100000      2.000000
 -0.400000  0.200000  0.100000      2.000000
 -0.300000  0.200000  0.100000      2.000000
 -0.200000  0.200000  0.100000      2.000000
 -0.100000  0.200000  0.100000      2.000000
  0.000000  0.300000  0.100000      2.000000
  0.100000  0.300000  0.100000      2.000000
  0.200000  0.300000  0.100000      2.000000
  0.300000  0.300000  0.100000      2.000000
  0.400000  0.300000  0.100000      2.000000
  0.500000  0.300000  0.100000      2.000000
 -0.400000  0.300000  0.100000      2.000000
 -0.300000  0.300000  0.100000      2.000000
 -0.200000  0.300000  0.100000      2.000000
 -0.100000  0.300000  0.100000      2.000000
  0.000000  0.400000  0.100000      2.000000
  0.100000  0.400000  0.100000      2.000000
  0.200000  0.400000  0.100000      2.000000
  0.300000  0.400000  0.100000      2.000000
  0.400000  0.400000  0.100000      2.000000
  0.500000  0.400000  0.100000      2.000000
 -0.400000  0.400000  0.100000      2.000000
 -0.300000  0.400000  0.100000      2.000000
 -0.200000  0.400000  0.100000      2.000000
 -0.100000  0.400000  0.100000      2.000000
  0.000000  0.500000  0.100000      2.000000
  0.100000  0.500000  0.100000      2.000000
  0.200000  0.500000  0.100000      2.000000
  0.300000  0.500000  0.100000      2.000000
  0.400000  0.500000  0.100000      2.000000
  0.500000  0.500000  0.100000      2.000000
 -0.400000  0.500000  0.100000      2.000000
 -0.300000  0.500000  0.100000      2.000000
 -0.200000  0.500000  0.100000      2.000000
 -0.100000  0.500000  0.100000      2.000000
  0.000000 -0.400000  0.100000      2.000000
  0.100000 -0.400000  0.100000      2.000000
  0.200000 -0.400000  0.100000      2.000000
  0.300000 -0.400000  0.100000      2.000000
  0.400000 -0.400000  0.100000      2.000000
  0.500000 -0.400000  0.100000      2.000000
 -0.400000 -0.400000  0.100000      2.000000
 -0.300000 -0.400000  0.100000      2.000000
 -0.200000 -0.400000  0.100000      2.000000
 -0.100000 -0.400000  0.100000      2.000000
  0.000000 -0.300000  0.100000      2.000000
  0.100000 -0.300000  0.100000      2.000000
  0.200000 -0.300000  0.100000      2.000000
  0.300000 -0.300000  0.100000      2.000000
  0.400000 -0.300000  0.100000      2.000000
  0.500000 -0.300000  0.100000      2.000000
 -0.400000 -0.300000  0.100000      2.000000
 -0.300000 -0.300000  0.100000      2.000000
 -0.200000 -0.300000  0.100000      2.000000
 -0.100000 -0.300000  0.100000      2.000000
  0.000000 -0.200000  0.100000      2.000000
  0.100000 -0.200000  0.100000      2.000000
  0.200000 -0.200000  0.100000      2.000000
  0.300000 -0.200000  0.100000      2.000000
  0.400000 -0.200000  0.100000      2.000000
  0.500000 -0.200000  0.100000      2.000000
 -0.400000 -0.200000  0.100000      2.000000
 -0.300000 -0.200000  0.100000      2.000000
 -0.200000 -0.200000  0.100000      2.000000
 -0.100000 -0.200000  0.100000      2.000000
  0.000000 -0.100000  0.100000      2.000000
  0.100000 -0.100000  0.100000      2.000000
  0.200000 -0.100000  0.100000      2.000000
  0.300000 -0.100000  0.100000      2.000000
  0.400000 -0.100000  0.100000      2.000000
  0.500000 -0.100000  0.100000      2.000000
 -0.400000 -0.100000  0.100000      2.000000
 -0.300000 -0.100000  0.100000      2.000000
 -0.200000 -0.100000  0.100000      2.000000
 -0.100000 -0.100000  0.100000      2.000000
  0.000000  0.000000  0.200000      2.000000
  0.100000  0.000000  0.200000      2.000000
  0.200000  0.000000  0.200000      2.000000
  0.300000  0.000000  0.200000      2.000000
  0.400000  0.000000  0.200000      2.000000
  0.500000  0.000000  0.200000      2.000000
 -0.400000  0.000000  0.200000      2.000000
 -0.300000  0.000000  0.200000      2.000000
 -0.200000  0.000000  0.200000      2.000000
 -0.100000  0.000000  0.200000      2.000000
  0.000000  0.100000  0.200000      2.000000
  0.100000  0.100000  0.200000      2.000000
  0.200000  0.100000  0.200000      2.000000
  0.300000  0.100000  0.200000      2.000000
  0.400000  0.100000  0.200000      2.000000
  0.500000  0.100000  0.200000      2.000000
 -0.400000  0.100000  0.200000      2.000000
 -0.300000  0.100000  0.200000      2.000000
 -0.200000  0.100000  0.200000      2.000000
 -0.100000  0.100000  0.200000      2.000000
  0.000000  0.200000  0.200000      2.000000
  0.100000  0.200000  0.200000      2.000000
  0.200000  0.200000  0.200000      2.000000
  0.300000  0.200000  0.200000      2.000000
  0.400000  0.200000  0.200000      2.000000
  0.500000  0.200000  0.200000      2.000000
 -0.400000  0.200000  0.200000      2.000000
 -0.300000  0.200000  0.200000      2.000000
 -0.200000  0.200000  0.200000      2.000000
 -0.100000  0.200000  0.200000      2.000000
  0.000000  0.300000  0.200000      2.000000
  0.100000  0.300000  0.200000      2.000000
  0.200000  0.300000  0.200000      2.000000
  0.300000  0.300000  0.200000      2.000000
  0.400000  0.300000  0.200000      2.000000
  0.500000  0.300000  0.200000      2.000000
 -0.400000  0.300000  0.200000      2.000000
 -0.300000  0.300000  0.200000      2.000000
 -0.200000  0.300000  0.200000      2.000000
 -0.100000  0.300000  0.200000      2.000000
  0.000000  0.400000  0.200000      2.000000
  0.100000  0.400000  0.200000      2.000000
  0.200000  0.400000  0.200000      2.000000
  0.300000  0.400000  0.200000      2.000000
  0.400000  0.400000  0.200000      2.000000
  0.500000  0.400000  0.200000      2.000000
 -0.400000  0.400000  0.200000      2.000000
 -0.300000  0.400000  0.200000      2.000000
 -0.200000  0.400000  0.200000      2.000000
 -0.100000  0.400000  0.200000      2.000000
  0.000000  0.500000  0.200000      2.000000
  0.100000  0.500000  0.200000      2.000000
  0.200000  0.500000  0.200000      2.000000
  0.300000  0.500000  0.200000      2.000000
  0.400000  0.500000  0.200000      2.000000
  0.500000  0.500000  0.200000      2.000000
 -0.400000  0.500000  0.200000      2.000000
 -0.300000  0.500000  0.200000      2.000000
 -0.200000  0.500000  0.200000      2.000000
 -0.100000  0.500000  0.200000      2.000000
  0.000000 -0.400000  0.200000      2.000000
  0.100000 -0.400000  0.200000      2.000000
  0.200000 -0.400000  0.200000      2.000000
  0.300000 -0.400000  0.200000      2.000000
  0.400000 -0.400000  0.200000      2.000000
  0.500000 -0.400000  0.200000      2.000000
 -0.400000 -0.400000  0.200000      2.000000
 -0.300000 -0.400000  0.200000      2.000000
 -0.200000 -0.400000  0.200000      2.000000
 -0.100000 -0.400000  0.200000      2.000000
  0.000000 -0.300000  0.200000      2.000000
  0.100000 -0.300000  0.200000      2.000000
  0.200000 -0.300000  0.200000      2.000000
  0.300000 -0.300000  0.200000      2.000000
  0.400000 -0.300000  0.200000      2.000000
  0.500000 -0.300000  0.200000      2.000000
 -0.400000 -0.300000  0.200000      2.000000
 -0.300000 -0.300000  0.200000      2.000000
 -0.200000 -0.300000  0.200000      2.000000
 -0.100000 -0.300000  0.200000      2.000000
  0.000000 -0.200000  0.200000      2.000000
  0.100000 -0.200000  0.200000      2.000000
  0.200000 -0.200000  0.200000      2.000000
  0.300000 -0.200000  0.200000      2.000000
  0.400000 -0.200000  0.200000      2.000000
  0.500000 -0.200000  0.200000      2.000000
 -0.400000 -0.200000  0.200000      2.000000
 -0.300000 -0.200000  0.200000      2.000000
 -0.200000 -0.200000  0.200000      2.000000
 -0.100000 -0.200000  0.200000      2.000000
  0.000000 -0.100000  0.200000      2.000000
  0.100000 -0.100000  0.200000      2.000000
  0.200000 -0.100000  0.200000      2.000000
  0.300000 -0.100000  0.200000      2.000000
  0.400000 -0.100000  0.200000      2.000000
  0.500000 -0.100000  0.200000      2.000000
 -0.400000 -0.100000  0.200000      2.000000
 -0.300000 -0.100000  0.200000      2.000000
 -0.200000 -0.100000  0.200000      2.000000
 -0.100000 -0.100000  0.200000      2.000000
  0.000000  0.000000  0.300000      2.000000
  0.100000  0.000000  0.300000      2.000000
  0.200000  0.000000  0.300000      2.000000
  0.300000  0.000000  0.300000      2.000000
  0.400000  0.000000  0.300000      2.000000
  0.500000  0.000000  0.300000      2.000000
 -0.400000  0.000000  0.300000      2.000000
 -0.300000  0.000000  0.300000      2.000000
 -0.200000  0.000000  0.300000      2.000000
 -0.100000  0.000000  0.300000      2.000000
  0.000000  0.100000  0.300000      2.000000
  0.100000  0.100000  0.300000      2.000000
  0.200000  0.100000  0.300000      2.000000
  0.300000  0.100000  0.300000      2.000000
  0.400000  0.100000  0.300000      2.000000
  0.500000  0.100000  0.300000      2.000000
 -0.400000  0.100000  0.300000      2.000000
 -0.300000  0.100000  0.300000      2.000000
 -0.200000  0.100000  0.300000      2.000000
 -0.100000  0.100000  0.300000      2.000000
  0.000000  0.200000  0.300000      2.000000
  0.100000  0.200000  0.300000      2.000000
  0.200000  0.200000  0.300000      2.000000
  0.300000  0.200000  0.300000      2.000000
  0.400000  0.200000  0.300000      2.000000
  0.500000  0.200000  0.300000      2.000000
 -0.400000  0.200000  0.300000      2.000000
 -0.300000  0.200000  0.300000      2.000000
 -0.200000  0.200000  0.300000      2.000000
 -0.100000  0.200000  0.300000      2.000000
  0.000000  0.300000  0.300000      2.000000
  0.100000  0.300000  0.300000      2.000000
  0.200000  0.300000  0.300000      2.000000
  0.300000  0.300000  0.300000      2.000000
  0.400000  0.300000  0.300000      2.000000
  0.500000  0.300000  0.300000      2.000000
 -0.400000  0.300000  0.300000      2.000000
 -0.300000  0.300000  0.300000      2.000000
 -0.200000  0.300000  0.300000      2.000000
 -0.100000  0.300000  0.300000      2.000000
  0.000000  0.400000  0.300000      2.000000
  0.100000  0.400000  0.300000      2.000000
  0.200000  0.400000  0.300000      2.000000
  0.300000  0.400000  0.300000      2.000000
  0.400000  0.400000  0.300000      2.000000
  0.500000  0.400000  0.300000      2.000000
 -0.400000  0.400000  0.300000      2.000000
 -0.300000  0.400000  0.300000      2.000000
 -0.200000  0.400000  0.300000      2.000000
 -0.100000  0.400000  0.300000      2.000000
  0.000000  0.500000  0.300000      2.000000
  0.100000  0.500000  0.300000      2.000000
  0.200000  0.500000  0.300000      2.000000
  0.300000  0.500000  0.300000      2.000000
  0.400000  0.500000  0.300000      2.000000
  0.500000  0.500000  0.300000      2.000000
 -0.400000  0.500000  0.300000      2.000000
 -0.300000  0.500000  0.300000      2.000000
 -0.200000  0.500000  0.300000      2.000000
 -0.100000  0.500000  0.300000      2.000000
  0.000000 -0.400000  0.300000      2.000000
  0.100000 -0.400000  0.300000      2.000000
  0.200000 -0.400000  0.300000      2.000000
  0.300000 -0.400000  0.300000      2.000000
  0.400000 -0.400000  0.300000      2.000000
  0.500000 -0.400000  0.300000      2.000000
 -0.400000 -0.400000  0.300000      2.000000
 -0.300000 -0.400000  0.300000      2.000000
 -0.200000 -0.400000  0.300000      2.000000
 -0.100000 -0.400000  0.300000      2.000000
  0.000000 -0.300000  0.300000      2.000000
  0.100000 -0.300000  0.300000      2.000000
  0.200000 -0.300000  0.300000      2.000000
  0.300000 -0.300000  0.300000      2.000000
  0.400000 -0.300000  0.300000      2.000000
  0.500000 -0.300000  0.300000      2.000000
 -0.400000 -0.300000  0.300000      2.000000
 -0.300000 -0.300000  0.300000      2.000000
 -0.200000 -0.300000  0.300000      2.000000
 -0.100000 -0.300000  0.300000      2.000000
  0.000000 -0.200000  0.300000      2.000000
  0.100000 -0.200000  0.300000      2.000000
  0.200000 -0.200000  0.300000      2.000000
  0.300000 -0.200000  0.300000      2.000000
  0.400000 -0.200000  0.300000      2.000000
  0.500000 -0.200000  0.300000      2.000000
 -0.400000 -0.200000  0.300000      2.000000
 -0.300000 -0.200000  0.300000      2.000000
 -0.200000 -0.200000  0.300000      2.000000
 -0.100000 -0.200000  0.300000      2.000000
  0.000000 -0.100000  0.300000      2.000000
  0.100000 -0.100000  0.300000      2.000000
  0.200000 -0.100000  0.300000      2.000000
  0.300000 -0.100000  0.300000      2.000000
  0.400000 -0.100000  0.300000      2.000000
  0.500000 -0.100000  0.300000      2.000000
 -0.400000 -0.100000  0.300000      2.000000
 -0.300000 -0.100000  0.300000      2.000000
 -0.200000 -0.100000  0.300000      2.000000
 -0.100000 -0.100000  0.300000      2.000000
  0.000000  0.000000  0.400000      2.000000
  0.100000  0.000000  0.400000      2.000000
  0.200000  0.000000  0.400000      2.000000
  0.300000  0.000000  0.400000      2.000000
  0.400000  0.000000  0.400000      2.000000
  0.500000  0.000000  0.400000      2.000000
 -0.400000  0.000000  0.400000      2.000000
 -0.300000  0.000000  0.400000      2.000000
 -0.200000  0.000000  0.400000      2.000000
 -0.100000  0.000000  0.400000      2.000000
  0.000000  0.100000  0.400000      2.000000
  0.100000  0.100000  0.400000      2.000000
  0.200000  0.100000  0.400000      2.000000
  0.300000  0.100000  0.400000      2.000000
  0.400000  0.100000  0.400000      2.000000
  0.500000  0.100000  0.400000      2.000000
 -0.400000  0.100000  0.400000      2.000000
 -0.300000  0.100000  0.400000      2.000000
 -0.200000  0.100000  0.400000      2.000000
 -0.100000  0.100000  0.400000      2.000000
  0.000000  0.200000  0.400000      2.000000
  0.100000  0.200000  0.400000      2.000000
  0.200000  0.200000  0.400000      2.000000
  0.300000  0.200000  0.400000      2.000000
  0.400000  0.200000  0.400000      2.000000
  0.500000  0.200000  0.400000      2.000000
 -0.400000  0.200000  0.400000      2.000000
 -0.300000  0.200000  0.400000      2.000000
 -0.200000  0.200000  0.400000      2.000000
 -0.100000  0.200000  0.400000      2.000000
  0.000000  0.300000  0.400000      2.000000
  0.100000  0.300000  0.400000      2.000000
  0.200000  0.300000  0.400000      2.000000
  0.300000  0.300000  0.400000      2.000000
  0.400000  0.300000  0.400000      2.000000
  0.500000  0.300000  0.400000      2.000000
 -0.400000  0.300000  0.400000      2.000000
 -0.300000  0.300000  0.400000      2.000000
 -0.200000  0.300000  0.400000      2.000000
 -0.100000  0.300000  0.400000      2.000000
  0.000000  0.400000  0.400000      2.000000
  0.100000  0.400000  0.400000      2.000000
  0.200000  0.400000  0.400000      2.000000
  0.300000  0.400000  0.400000      2.000000
  0.400000  0.400000  0.400000      2.000000
  0.500000  0.400000  0.400000      2.000000
 -0.400000  0.400000  0.400000      2.000000
 -0.300000  0.400000  0.400000      2.000000
 -0.200000  0.400000  0.400000      2.000000
 -0.100000  0.400000  0.400000      2.000000
  0.000000  0.500000  0.400000      2.000000
  0.100000  0.500000  0.400000      2.000000
  0.200000  0.500000  0.400000      2.000000
  0.300000  0.500000  0.400000      2.000000
  0.400000  0.500000  0.400000      2.000000
  0.500000  0.500000  0.400000      2.000000
 -0.400000  0.500000  0.400000      2.000000
 -0.300000  0.500000  0.400000      2.000000
 -0.200000  0.500000  0.400000      2.000000
 -0.100000  0.500000  0.400000      2.000000
  0.000000 -0.400000  0.400000      2.000000
  0.100000 -0.400000  0.400000      2.000000
  0.200000 -0.400000  0.400000      2.000000
  0.300000 -0.400000  0.400000      2.000000
  0.400000 -0.400000  0.400000      2.000000
  0.500000 -0.400000  0.400000      2.000000
 -0.400000 -0.400000  0.400000      2.000000
 -0.300000 -0.400000  0.400000      2.000000
 -0.200000 -0.400000  0.400000      2.000000
 -0.100000 -0.400000  0.400000      2.000000
  0.000000 -0.300000  0.400000      2.000000
  0.100000 -0.300000  0.400000      2.000000
  0.200000 -0.300000  0.400000      2.000000
  0.300000 -0.300000  0.400000      2.000000
  0.400000 -0.300000  0.400000      2.000000
  0.500000 -0.300000  0.400000      2.000000
 -0.400000 -0.300000  0.400000      2.000000
 -0.300000 -0.300000  0.400000      2.000000
 -0.200000 -0.300000  0.400000      2.000000
 -0.100000 -0.300000  0.400000      2.000000
  0.000000 -0.200000  0.400000      2.000000
  0.100000 -0.200000  0.400000      2.000000
  0.200000 -0.200000  0.400000      2.000000
  0.300000 -0.200000  0.400000      2.000000
  0.400000 -0.200000  0.400000      2.000000
  0.500000 -0.200000  0.400000      2.000000
 -0.400000 -0.200000  0.400000      2.000000
 -0.300000 -0.200000  0.400000      2.000000
 -0.200000 -0.200000  0.400000      2.000000
 -0.100000 -0.200000  0.400000      2.000000
  0.000000 -0.100000  0.400000      2.000000
  0.100000 -0.100000  0.400000      2.000000
  0.200000 -0.100000  0.400000      2.000000
  0.300000 -0.100000  0.400000      2.000000
  0.400000 -0.100000  0.400000      2.000000
  0.500000 -0.100000  0.400000      2.000000
 -0.400000 -0.100000  0.400000      2.000000
 -0.300000 -0.100000  0.400000      2.000000
 -0.200000 -0.100000  0.400000      2.000000
 -0.100000 -0.100000  0.400000      2.000000
  0.000000  0.000000  0.500000      1.000000
  0.100000  0.000000  0.500000      2.000000
  0.200000  0.000000  0.500000      2.000000
  0.300000  0.000000  0.500000      2.000000
  0.400000  0.000000  0.500000      2.000000
  0.500000  0.000000  0.500000      1.000000
  0.000000  0.100000  0.500000      2.000000
  0.100000  0.100000  0.500000      2.000000
  0.200000  0.100000  0.500000      2.000000
  0.300000  0.100000  0.500000      2.000000
  0.400000  0.100000  0.500000      2.000000
  0.500000  0.100000  0.500000      2.000000
 -0.400000  0.100000  0.500000      2.000000
 -0.300000  0.100000  0.500000      2.000000
 -0.200000  0.100000  0.500000      2.000000
 -0.100000  0.100000  0.500000      2.000000
  0.000000  0.200000  0.500000      2.000000
  0.100000  0.200000  0.500000      2.000000
  0.200000  0.200000  0.500000      2.000000
  0.300000  0.200000  0.500000      2.000000
  0.400000  0.200000  0.500000      2.000000
  0.500000  0.200000  0.500000      2.000000
 -0.400000  0.200000  0.500000      2.000000
 -0.300000  0.200000  0.500000      2.000000
 -0.200000  0.200000  0.500000      2.000000
 -0.100000  0.200000  0.500000      2.000000
  0.000000  0.300000  0.500000      2.000000
  0.100000  0.300000  0.500000      2.000000
  0.200000  0.300000  0.500000      2.000000
  0.300000  0.300000  0.500000      2.000000
  0.400000  0.300000  0.500000      2.000000
  0.500000  0.300000  0.500000      2.000000
 -0.400000  0.300000  0.500000      2.000000
 -0.300000  0.300000  0.500000      2.000000
 -0.200000  0.300000  0.500000      2.000000
 -0.100000  0.300000  0.500000      2.000000
  0.000000  0.400000  0.500000      2.000000
  0.100000  0.400000  0.500000      2.000000
  0.200000  0.400000  0.500000      2.000000
  0.300000  0.400000  0.500000      2.000000
  0.400000  0.400000  0.500000      2.000000
  0.500000  0.400000  0.500000      2.000000
 -0.400000  0.400000  0.500000      2.000000
 -0.300000  0.400000  0.500000      2.000000
 -0.200000  0.400000  0.500000      2.000000
 -0.100000  0.400000  0.500000      2.000000
  0.000000  0.500000  0.500000      1.000000
  0.100000  0.500000  0.500000      2.000000
  0.200000  0.500000  0.500000      2.000000
  0.300000  0.500000  0.500000      2.000000
  0.400000  0.500000  0.500000      2.000000
  0.500000  0.500000  0.500000      1.000000
 
 Following cartesian coordinates:
            Coordinates               Weight
  0.000000  0.000000  0.000000      1.000000
  0.010189  0.000000  0.000000      2.000000
  0.020377  0.000000  0.000000      2.000000
  0.030566  0.000000  0.000000      2.000000
  0.040754  0.000000  0.000000      2.000000
  0.050943  0.000000  0.000000      1.000000
  0.000000  0.010189  0.000000      2.000000
  0.010189  0.010189  0.000000      2.000000
  0.020377  0.010189  0.000000      2.000000
  0.030566  0.010189  0.000000      2.000000
  0.040754  0.010189  0.000000      2.000000
  0.050943  0.010189  0.000000      2.000000
 -0.040754  0.010189  0.000000      2.000000
 -0.030566  0.010189  0.000000      2.000000
 -0.020377  0.010189  0.000000      2.000000
 -0.010189  0.010189  0.000000      2.000000
  0.000000  0.020377  0.000000      2.000000
  0.010189  0.020377  0.000000      2.000000
  0.020377  0.020377  0.000000      2.000000
  0.030566  0.020377  0.000000      2.000000
  0.040754  0.020377  0.000000      2.000000
  0.050943  0.020377  0.000000      2.000000
 -0.040754  0.020377  0.000000      2.000000
 -0.030566  0.020377  0.000000      2.000000
 -0.020377  0.020377  0.000000      2.000000
 -0.010189  0.020377  0.000000      2.000000
  0.000000  0.030566  0.000000      2.000000
  0.010189  0.030566  0.000000      2.000000
  0.020377  0.030566  0.000000      2.000000
  0.030566  0.030566  0.000000      2.000000
  0.040754  0.030566  0.000000      2.000000
  0.050943  0.030566  0.000000      2.000000
 -0.040754  0.030566  0.000000      2.000000
 -0.030566  0.030566  0.000000      2.000000
 -0.020377  0.030566  0.000000      2.000000
 -0.010189  0.030566  0.000000      2.000000
  0.000000  0.040754  0.000000      2.000000
  0.010189  0.040754  0.000000      2.000000
  0.020377  0.040754  0.000000      2.000000
  0.030566  0.040754  0.000000      2.000000
  0.040754  0.040754  0.000000      2.000000
  0.050943  0.040754  0.000000      2.000000
 -0.040754  0.040754  0.000000      2.000000
 -0.030566  0.040754  0.000000      2.000000
 -0.020377  0.040754  0.000000      2.000000
 -0.010189  0.040754  0.000000      2.000000
  0.000000  0.050943  0.000000      1.000000
  0.010189  0.050943  0.000000      2.000000
  0.020377  0.050943  0.000000      2.000000
  0.030566  0.050943  0.000000      2.000000
  0.040754  0.050943  0.000000      2.000000
  0.050943  0.050943  0.000000      1.000000
  0.000000  0.000000  0.010189      2.000000
  0.010189  0.000000  0.010189      2.000000
  0.020377  0.000000  0.010189      2.000000
  0.030566  0.000000  0.010189      2.000000
  0.040754  0.000000  0.010189      2.000000
  0.050943  0.000000  0.010189      2.000000
 -0.040754  0.000000  0.010189      2.000000
 -0.030566  0.000000  0.010189      2.000000
 -0.020377  0.000000  0.010189      2.000000
 -0.010189  0.000000  0.010189      2.000000
  0.000000  0.010189  0.010189      2.000000
  0.010189  0.010189  0.010189      2.000000
  0.020377  0.010189  0.010189      2.000000
  0.030566  0.010189  0.010189      2.000000
  0.040754  0.010189  0.010189      2.000000
  0.050943  0.010189  0.010189      2.000000
 -0.040754  0.010189  0.010189      2.000000
 -0.030566  0.010189  0.010189      2.000000
 -0.020377  0.010189  0.010189      2.000000
 -0.010189  0.010189  0.010189      2.000000
  0.000000  0.020377  0.010189      2.000000
  0.010189  0.020377  0.010189      2.000000
  0.020377  0.020377  0.010189      2.000000
  0.030566  0.020377  0.010189      2.000000
  0.040754  0.020377  0.010189      2.000000
  0.050943  0.020377  0.010189      2.000000
 -0.040754  0.020377  0.010189      2.000000
 -0.030566  0.020377  0.010189      2.000000
 -0.020377  0.020377  0.010189      2.000000
 -0.010189  0.020377  0.010189      2.000000
  0.000000  0.030566  0.010189      2.000000
  0.010189  0.030566  0.010189      2.000000
  0.020377  0.030566  0.010189      2.000000
  0.030566  0.030566  0.010189      2.000000
  0.040754  0.030566  0.010189      2.000000
  0.050943  0.030566  0.010189      2.000000
 -0.040754  0.030566  0.010189      2.000000
 -0.030566  0.030566  0.010189      2.000000
 -0.020377  0.030566  0.010189      2.000000
 -0.010189  0.030566  0.010189      2.000000
  0.000000  0.040754  0.010189      2.000000
  0.010189  0.040754  0.010189      2.000000
  0.020377  0.040754  0.010189      2.000000
  0.030566  0.040754  0.010189      2.000000
  0.040754  0.040754  0.010189      2.000000
  0.050943  0.040754  0.010189      2.000000
 -0.040754  0.040754  0.010189      2.000000
 -0.030566  0.040754  0.010189      2.000000
 -0.020377  0.040754  0.010189      2.000000
 -0.010189  0.040754  0.010189      2.000000
  0.000000  0.050943  0.010189      2.000000
  0.010189  0.050943  0.010189      2.000000
  0.020377  0.050943  0.010189      2.000000
  0.030566  0.050943  0.010189      2.000000
  0.040754  0.050943  0.010189      2.000000
  0.050943  0.050943  0.010189      2.000000
 -0.040754  0.050943  0.010189      2.000000
 -0.030566  0.050943  0.010189      2.000000
 -0.020377  0.050943  0.010189      2.000000
 -0.010189  0.050943  0.010189      2.000000
  0.000000 -0.040754  0.010189      2.000000
  0.010189 -0.040754  0.010189      2.000000
  0.020377 -0.040754  0.010189      2.000000
  0.030566 -0.040754  0.010189      2.000000
  0.040754 -0.040754  0.010189      2.000000
  0.050943 -0.040754  0.010189      2.000000
 -0.040754 -0.040754  0.010189      2.000000
 -0.030566 -0.040754  0.010189      2.000000
 -0.020377 -0.040754  0.010189      2.000000
 -0.010189 -0.040754  0.010189      2.000000
  0.000000 -0.030566  0.010189      2.000000
  0.010189 -0.030566  0.010189      2.000000
  0.020377 -0.030566  0.010189      2.000000
  0.030566 -0.030566  0.010189      2.000000
  0.040754 -0.030566  0.010189      2.000000
  0.050943 -0.030566  0.010189      2.000000
 -0.040754 -0.030566  0.010189      2.000000
 -0.030566 -0.030566  0.010189      2.000000
 -0.020377 -0.030566  0.010189      2.000000
 -0.010189 -0.030566  0.010189      2.000000
  0.000000 -0.020377  0.010189      2.000000
  0.010189 -0.020377  0.010189      2.000000
  0.020377 -0.020377  0.010189      2.000000
  0.030566 -0.020377  0.010189      2.000000
  0.040754 -0.020377  0.010189      2.000000
  0.050943 -0.020377  0.010189      2.000000
 -0.040754 -0.020377  0.010189      2.000000
 -0.030566 -0.020377  0.010189      2.000000
 -0.020377 -0.020377  0.010189      2.000000
 -0.010189 -0.020377  0.010189      2.000000
  0.000000 -0.010189  0.010189      2.000000
  0.010189 -0.010189  0.010189      2.000000
  0.020377 -0.010189  0.010189      2.000000
  0.030566 -0.010189  0.010189      2.000000
  0.040754 -0.010189  0.010189      2.000000
  0.050943 -0.010189  0.010189      2.000000
 -0.040754 -0.010189  0.010189      2.000000
 -0.030566 -0.010189  0.010189      2.000000
 -0.020377 -0.010189  0.010189      2.000000
 -0.010189 -0.010189  0.010189      2.000000
  0.000000  0.000000  0.020377      2.000000
  0.010189  0.000000  0.020377      2.000000
  0.020377  0.000000  0.020377      2.000000
  0.030566  0.000000  0.020377      2.000000
  0.040754  0.000000  0.020377      2.000000
  0.050943  0.000000  0.020377      2.000000
 -0.040754  0.000000  0.020377      2.000000
 -0.030566  0.000000  0.020377      2.000000
 -0.020377  0.000000  0.020377      2.000000
 -0.010189  0.000000  0.020377      2.000000
  0.000000  0.010189  0.020377      2.000000
  0.010189  0.010189  0.020377      2.000000
  0.020377  0.010189  0.020377      2.000000
  0.030566  0.010189  0.020377      2.000000
  0.040754  0.010189  0.020377      2.000000
  0.050943  0.010189  0.020377      2.000000
 -0.040754  0.010189  0.020377      2.000000
 -0.030566  0.010189  0.020377      2.000000
 -0.020377  0.010189  0.020377      2.000000
 -0.010189  0.010189  0.020377      2.000000
  0.000000  0.020377  0.020377      2.000000
  0.010189  0.020377  0.020377      2.000000
  0.020377  0.020377  0.020377      2.000000
  0.030566  0.020377  0.020377      2.000000
  0.040754  0.020377  0.020377      2.000000
  0.050943  0.020377  0.020377      2.000000
 -0.040754  0.020377  0.020377      2.000000
 -0.030566  0.020377  0.020377      2.000000
 -0.020377  0.020377  0.020377      2.000000
 -0.010189  0.020377  0.020377      2.000000
  0.000000  0.030566  0.020377      2.000000
  0.010189  0.030566  0.020377      2.000000
  0.020377  0.030566  0.020377      2.000000
  0.030566  0.030566  0.020377      2.000000
  0.040754  0.030566  0.020377      2.000000
  0.050943  0.030566  0.020377      2.000000
 -0.040754  0.030566  0.020377      2.000000
 -0.030566  0.030566  0.020377      2.000000
 -0.020377  0.030566  0.020377      2.000000
 -0.010189  0.030566  0.020377      2.000000
  0.000000  0.040754  0.020377      2.000000
  0.010189  0.040754  0.020377      2.000000
  0.020377  0.040754  0.020377      2.000000
  0.030566  0.040754  0.020377      2.000000
  0.040754  0.040754  0.020377      2.000000
  0.050943  0.040754  0.020377      2.000000
 -0.040754  0.040754  0.020377      2.000000
 -0.030566  0.040754  0.020377      2.000000
 -0.020377  0.040754  0.020377      2.000000
 -0.010189  0.040754  0.020377      2.000000
  0.000000  0.050943  0.020377      2.000000
  0.010189  0.050943  0.020377      2.000000
  0.020377  0.050943  0.020377      2.000000
  0.030566  0.050943  0.020377      2.000000
  0.040754  0.050943  0.020377      2.000000
  0.050943  0.050943  0.020377      2.000000
 -0.040754  0.050943  0.020377      2.000000
 -0.030566  0.050943  0.020377      2.000000
 -0.020377  0.050943  0.020377      2.000000
 -0.010189  0.050943  0.020377      2.000000
  0.000000 -0.040754  0.020377      2.000000
  0.010189 -0.040754  0.020377      2.000000
  0.020377 -0.040754  0.020377      2.000000
  0.030566 -0.040754  0.020377      2.000000
  0.040754 -0.040754  0.020377      2.000000
  0.050943 -0.040754  0.020377      2.000000
 -0.040754 -0.040754  0.020377      2.000000
 -0.030566 -0.040754  0.020377      2.000000
 -0.020377 -0.040754  0.020377      2.000000
 -0.010189 -0.040754  0.020377      2.000000
  0.000000 -0.030566  0.020377      2.000000
  0.010189 -0.030566  0.020377      2.000000
  0.020377 -0.030566  0.020377      2.000000
  0.030566 -0.030566  0.020377      2.000000
  0.040754 -0.030566  0.020377      2.000000
  0.050943 -0.030566  0.020377      2.000000
 -0.040754 -0.030566  0.020377      2.000000
 -0.030566 -0.030566  0.020377      2.000000
 -0.020377 -0.030566  0.020377      2.000000
 -0.010189 -0.030566  0.020377      2.000000
  0.000000 -0.020377  0.020377      2.000000
  0.010189 -0.020377  0.020377      2.000000
  0.020377 -0.020377  0.020377      2.000000
  0.030566 -0.020377  0.020377      2.000000
  0.040754 -0.020377  0.020377      2.000000
  0.050943 -0.020377  0.020377      2.000000
 -0.040754 -0.020377  0.020377      2.000000
 -0.030566 -0.020377  0.020377      2.000000
 -0.020377 -0.020377  0.020377      2.000000
 -0.010189 -0.020377  0.020377      2.000000
  0.000000 -0.010189  0.020377      2.000000
  0.010189 -0.010189  0.020377      2.000000
  0.020377 -0.010189  0.020377      2.000000
  0.030566 -0.010189  0.020377      2.000000
  0.040754 -0.010189  0.020377      2.000000
  0.050943 -0.010189  0.020377      2.000000
 -0.040754 -0.010189  0.020377      2.000000
 -0.030566 -0.010189  0.020377      2.000000
 -0.020377 -0.010189  0.020377      2.000000
 -0.010189 -0.010189  0.020377      2.000000
  0.000000  0.000000  0.030566      2.000000
  0.010189  0.000000  0.030566      2.000000
  0.020377  0.000000  0.030566      2.000000
  0.030566  0.000000  0.030566      2.000000
  0.040754  0.000000  0.030566      2.000000
  0.050943  0.000000  0.030566      2.000000
 -0.040754  0.000000  0.030566      2.000000
 -0.030566  0.000000  0.030566      2.000000
 -0.020377  0.000000  0.030566      2.000000
 -0.010189  0.000000  0.030566      2.000000
  0.000000  0.010189  0.030566      2.000000
  0.010189  0.010189  0.030566      2.000000
  0.020377  0.010189  0.030566      2.000000
  0.030566  0.010189  0.030566      2.000000
  0.040754  0.010189  0.030566      2.000000
  0.050943  0.010189  0.030566      2.000000
 -0.040754  0.010189  0.030566      2.000000
 -0.030566  0.010189  0.030566      2.000000
 -0.020377  0.010189  0.030566      2.000000
 -0.010189  0.010189  0.030566      2.000000
  0.000000  0.020377  0.030566      2.000000
  0.010189  0.020377  0.030566      2.000000
  0.020377  0.020377  0.030566      2.000000
  0.030566  0.020377  0.030566      2.000000
  0.040754  0.020377  0.030566      2.000000
  0.050943  0.020377  0.030566      2.000000
 -0.040754  0.020377  0.030566      2.000000
 -0.030566  0.020377  0.030566      2.000000
 -0.020377  0.020377  0.030566      2.000000
 -0.010189  0.020377  0.030566      2.000000
  0.000000  0.030566  0.030566      2.000000
  0.010189  0.030566  0.030566      2.000000
  0.020377  0.030566  0.030566      2.000000
  0.030566  0.030566  0.030566      2.000000
  0.040754  0.030566  0.030566      2.000000
  0.050943  0.030566  0.030566      2.000000
 -0.040754  0.030566  0.030566      2.000000
 -0.030566  0.030566  0.030566      2.000000
 -0.020377  0.030566  0.030566      2.000000
 -0.010189  0.030566  0.030566      2.000000
  0.000000  0.040754  0.030566      2.000000
  0.010189  0.040754  0.030566      2.000000
  0.020377  0.040754  0.030566      2.000000
  0.030566  0.040754  0.030566      2.000000
  0.040754  0.040754  0.030566      2.000000
  0.050943  0.040754  0.030566      2.000000
 -0.040754  0.040754  0.030566      2.000000
 -0.030566  0.040754  0.030566      2.000000
 -0.020377  0.040754  0.030566      2.000000
 -0.010189  0.040754  0.030566      2.000000
  0.000000  0.050943  0.030566      2.000000
  0.010189  0.050943  0.030566      2.000000
  0.020377  0.050943  0.030566      2.000000
  0.030566  0.050943  0.030566      2.000000
  0.040754  0.050943  0.030566      2.000000
  0.050943  0.050943  0.030566      2.000000
 -0.040754  0.050943  0.030566      2.000000
 -0.030566  0.050943  0.030566      2.000000
 -0.020377  0.050943  0.030566      2.000000
 -0.010189  0.050943  0.030566      2.000000
  0.000000 -0.040754  0.030566      2.000000
  0.010189 -0.040754  0.030566      2.000000
  0.020377 -0.040754  0.030566      2.000000
  0.030566 -0.040754  0.030566      2.000000
  0.040754 -0.040754  0.030566      2.000000
  0.050943 -0.040754  0.030566      2.000000
 -0.040754 -0.040754  0.030566      2.000000
 -0.030566 -0.040754  0.030566      2.000000
 -0.020377 -0.040754  0.030566      2.000000
 -0.010189 -0.040754  0.030566      2.000000
  0.000000 -0.030566  0.030566      2.000000
  0.010189 -0.030566  0.030566      2.000000
  0.020377 -0.030566  0.030566      2.000000
  0.030566 -0.030566  0.030566      2.000000
  0.040754 -0.030566  0.030566      2.000000
  0.050943 -0.030566  0.030566      2.000000
 -0.040754 -0.030566  0.030566      2.000000
 -0.030566 -0.030566  0.030566      2.000000
 -0.020377 -0.030566  0.030566      2.000000
 -0.010189 -0.030566  0.030566      2.000000
  0.000000 -0.020377  0.030566      2.000000
  0.010189 -0.020377  0.030566      2.000000
  0.020377 -0.020377  0.030566      2.000000
  0.030566 -0.020377  0.030566      2.000000
  0.040754 -0.020377  0.030566      2.000000
  0.050943 -0.020377  0.030566      2.000000
 -0.040754 -0.020377  0.030566      2.000000
 -0.030566 -0.020377  0.030566      2.000000
 -0.020377 -0.020377  0.030566      2.000000
 -0.010189 -0.020377  0.030566      2.000000
  0.000000 -0.010189  0.030566      2.000000
  0.010189 -0.010189  0.030566      2.000000
  0.020377 -0.010189  0.030566      2.000000
  0.030566 -0.010189  0.030566      2.000000
  0.040754 -0.010189  0.030566      2.000000
  0.050943 -0.010189  0.030566      2.000000
 -0.040754 -0.010189  0.030566      2.000000
 -0.030566 -0.010189  0.030566      2.000000
 -0.020377 -0.010189  0.030566      2.000000
 -0.010189 -0.010189  0.030566      2.000000
  0.000000  0.000000  0.040754      2.000000
  0.010189  0.000000  0.040754      2.000000
  0.020377  0.000000  0.040754      2.000000
  0.030566  0.000000  0.040754      2.000000
  0.040754  0.000000  0.040754      2.000000
  0.050943  0.000000  0.040754      2.000000
 -0.040754  0.000000  0.040754      2.000000
 -0.030566  0.000000  0.040754      2.000000
 -0.020377  0.000000  0.040754      2.000000
 -0.010189  0.000000  0.040754      2.000000
  0.000000  0.010189  0.040754      2.000000
  0.010189  0.010189  0.040754      2.000000
  0.020377  0.010189  0.040754      2.000000
  0.030566  0.010189  0.040754      2.000000
  0.040754  0.010189  0.040754      2.000000
  0.050943  0.010189  0.040754      2.000000
 -0.040754  0.010189  0.040754      2.000000
 -0.030566  0.010189  0.040754      2.000000
 -0.020377  0.010189  0.040754      2.000000
 -0.010189  0.010189  0.040754      2.000000
  0.000000  0.020377  0.040754      2.000000
  0.010189  0.020377  0.040754      2.000000
  0.020377  0.020377  0.040754      2.000000
  0.030566  0.020377  0.040754      2.000000
  0.040754  0.020377  0.040754      2.000000
  0.050943  0.020377  0.040754      2.000000
 -0.040754  0.020377  0.040754      2.000000
 -0.030566  0.020377  0.040754      2.000000
 -0.020377  0.020377  0.040754      2.000000
 -0.010189  0.020377  0.040754      2.000000
  0.000000  0.030566  0.040754      2.000000
  0.010189  0.030566  0.040754      2.000000
  0.020377  0.030566  0.040754      2.000000
  0.030566  0.030566  0.040754      2.000000
  0.040754  0.030566  0.040754      2.000000
  0.050943  0.030566  0.040754      2.000000
 -0.040754  0.030566  0.040754      2.000000
 -0.030566  0.030566  0.040754      2.000000
 -0.020377  0.030566  0.040754      2.000000
 -0.010189  0.030566  0.040754      2.000000
  0.000000  0.040754  0.040754      2.000000
  0.010189  0.040754  0.040754      2.000000
  0.020377  0.040754  0.040754      2.000000
  0.030566  0.040754  0.040754      2.000000
  0.040754  0.040754  0.040754      2.000000
  0.050943  0.040754  0.040754      2.000000
 -0.040754  0.040754  0.040754      2.000000
 -0.030566  0.040754  0.040754      2.000000
 -0.020377  0.040754  0.040754      2.000000
 -0.010189  0.040754  0.040754      2.000000
  0.000000  0.050943  0.040754      2.000000
  0.010189  0.050943  0.040754      2.000000
  0.020377  0.050943  0.040754      2.000000
  0.030566  0.050943  0.040754      2.000000
  0.040754  0.050943  0.040754      2.000000
  0.050943  0.050943  0.040754      2.000000
 -0.040754  0.050943  0.040754      2.000000
 -0.030566  0.050943  0.040754      2.000000
 -0.020377  0.050943  0.040754      2.000000
 -0.010189  0.050943  0.040754      2.000000
  0.000000 -0.040754  0.040754      2.000000
  0.010189 -0.040754  0.040754      2.000000
  0.020377 -0.040754  0.040754      2.000000
  0.030566 -0.040754  0.040754      2.000000
  0.040754 -0.040754  0.040754      2.000000
  0.050943 -0.040754  0.040754      2.000000
 -0.040754 -0.040754  0.040754      2.000000
 -0.030566 -0.040754  0.040754      2.000000
 -0.020377 -0.040754  0.040754      2.000000
 -0.010189 -0.040754  0.040754      2.000000
  0.000000 -0.030566  0.040754      2.000000
  0.010189 -0.030566  0.040754      2.000000
  0.020377 -0.030566  0.040754      2.000000
  0.030566 -0.030566  0.040754      2.000000
  0.040754 -0.030566  0.040754      2.000000
  0.050943 -0.030566  0.040754      2.000000
 -0.040754 -0.030566  0.040754      2.000000
 -0.030566 -0.030566  0.040754      2.000000
 -0.020377 -0.030566  0.040754      2.000000
 -0.010189 -0.030566  0.040754      2.000000
  0.000000 -0.020377  0.040754      2.000000
  0.010189 -0.020377  0.040754      2.000000
  0.020377 -0.020377  0.040754      2.000000
  0.030566 -0.020377  0.040754      2.000000
  0.040754 -0.020377  0.040754      2.000000
  0.050943 -0.020377  0.040754      2.000000
 -0.040754 -0.020377  0.040754      2.000000
 -0.030566 -0.020377  0.040754      2.000000
 -0.020377 -0.020377  0.040754      2.000000
 -0.010189 -0.020377  0.040754      2.000000
  0.000000 -0.010189  0.040754      2.000000
  0.010189 -0.010189  0.040754      2.000000
  0.020377 -0.010189  0.040754      2.000000
  0.030566 -0.010189  0.040754      2.000000
  0.040754 -0.010189  0.040754      2.000000
  0.050943 -0.010189  0.040754      2.000000
 -0.040754 -0.010189  0.040754      2.000000
 -0.030566 -0.010189  0.040754      2.000000
 -0.020377 -0.010189  0.040754      2.000000
 -0.010189 -0.010189  0.040754      2.000000
  0.000000  0.000000  0.050943      1.000000
  0.010189  0.000000  0.050943      2.000000
  0.020377  0.000000  0.050943      2.000000
  0.030566  0.000000  0.050943      2.000000
  0.040754  0.000000  0.050943      2.000000
  0.050943  0.000000  0.050943      1.000000
  0.000000  0.010189  0.050943      2.000000
  0.010189  0.010189  0.050943      2.000000
  0.020377  0.010189  0.050943      2.000000
  0.030566  0.010189  0.050943      2.000000
  0.040754  0.010189  0.050943      2.000000
  0.050943  0.010189  0.050943      2.000000
 -0.040754  0.010189  0.050943      2.000000
 -0.030566  0.010189  0.050943      2.000000
 -0.020377  0.010189  0.050943      2.000000
 -0.010189  0.010189  0.050943      2.000000
  0.000000  0.020377  0.050943      2.000000
  0.010189  0.020377  0.050943      2.000000
  0.020377  0.020377  0.050943      2.000000
  0.030566  0.020377  0.050943      2.000000
  0.040754  0.020377  0.050943      2.000000
  0.050943  0.020377  0.050943      2.000000
 -0.040754  0.020377  0.050943      2.000000
 -0.030566  0.020377  0.050943      2.000000
 -0.020377  0.020377  0.050943      2.000000
 -0.010189  0.020377  0.050943      2.000000
  0.000000  0.030566  0.050943      2.000000
  0.010189  0.030566  0.050943      2.000000
  0.020377  0.030566  0.050943      2.000000
  0.030566  0.030566  0.050943      2.000000
  0.040754  0.030566  0.050943      2.000000
  0.050943  0.030566  0.050943      2.000000
 -0.040754  0.030566  0.050943      2.000000
 -0.030566  0.030566  0.050943      2.000000
 -0.020377  0.030566  0.050943      2.000000
 -0.010189  0.030566  0.050943      2.000000
  0.000000  0.040754  0.050943      2.000000
  0.010189  0.040754  0.050943      2.000000
  0.020377  0.040754  0.050943      2.000000
  0.030566  0.040754  0.050943      2.000000
  0.040754  0.040754  0.050943      2.000000
  0.050943  0.040754  0.050943      2.000000
 -0.040754  0.040754  0.050943      2.000000
 -0.030566  0.040754  0.050943      2.000000
 -0.020377  0.040754  0.050943      2.000000
 -0.010189  0.040754  0.050943      2.000000
  0.000000  0.050943  0.050943      1.000000
  0.010189  0.050943  0.050943      2.000000
  0.020377  0.050943  0.050943      2.000000
  0.030566  0.050943  0.050943      2.000000
  0.040754  0.050943  0.050943      2.000000
  0.050943  0.050943  0.050943      1.000000
 


--------------------------------------------------------------------------------------------------------




 Dimension of arrays:
   k-points           NKPTS =    504   k-points in BZ     NKDIM =    504   number of bands    NBANDS=    172
   number of dos      NEDOS =    301   number of ions     NIONS =     93
   non local maximal  LDIM  =      4   non local SUM 2l+1 LMDIM =      8
   total plane-waves  NPLWV = 110592
   max r-space proj   IRMAX =   1339   max aug-charges    IRDMAX=   1717
   dimension x,y,z NGX =    48 NGY =   48 NGZ =   48
   dimension x,y,z NGXF=    96 NGYF=   96 NGZF=   96
   support grid    NGXF=    96 NGYF=   96 NGZF=   96
   ions per type =              31  62
   NGX,Y,Z   is equivalent  to a cutoff of   8.13,  8.13,  8.13 a.u.
   NGXF,Y,Z  is equivalent  to a cutoff of  16.26, 16.26, 16.26 a.u.

 SYSTEM =  ice                                     
 POSCAR =  # 4                                     

 Startparameter for this run:
   NWRITE =      0    write-flag & timer
   PREC   = normal    normal or accurate (medium, high low for compatibility)
   ISTART =      0    job   : 0-new  1-cont  2-samecut
   ICHARG =      1    charge: 1-file 2-atom 10-const
   ISPIN  =      1    spin polarized calculation?
   LNONCOLLINEAR =      F non collinear calculations
   LSORBIT =      F    spin-orbit coupling
   INIWAV =      1    electr: 0-lowe 1-rand  2-diag
   LASPH  =      F    aspherical Exc in radial PAW
   METAGGA=      F    non-selfconsistent MetaGGA calc.

 Electronic Relaxation 1
   ENCUT  =  400.0 eV  29.40 Ry    5.42 a.u.  16.01 16.01 16.01*2*pi/ulx,y,z
   ENINI  =  400.0     initial cutoff
   ENAUG  =  605.4 eV  augmentation charge cutoff
   NELM   =    500;   NELMIN=  4; NELMDL=  0     # of ELM steps 
   EDIFF  = 0.1E-05   stopping-criterion for ELM
   LREAL  =      T    real-space projection
   NLSPLINE    = F    spline interpolate recip. space projectors
   LCOMPAT=      F    compatible to vasp.4.4
   GGA_COMPAT  = T    GGA compatible to vasp.4.4-vasp.4.6
   LMAXPAW     = -100 max onsite density
   LMAXMIX     =    2 max onsite mixed and CHGCAR
   VOSKOWN=      0    Vosko Wilk Nusair interpolation
   ROPT   =   -0.00050  -0.00050
 Ionic relaxation
   EDIFFG = 0.1E-04   stopping-criterion for IOM
   NSW    =      0    number of steps for IOM
   NBLOCK =      1;   KBLOCK =      1    inner block; outer block 
   IBRION =     -1    ionic relax: 0-MD 1-quasi-New 2-CG
   NFREE  =      0    steps in history (QN), initial steepest desc. (CG)
   ISIF   =      2    stress and relaxation
   IWAVPR =     10    prediction:  0-non 1-charg 2-wave 3-comb
   ISYM   =      2    0-nonsym 1-usesym 2-fastsym
   LCORR  =      T    Harris-Foulkes like correction to forces

   POTIM  = 0.5000    time-step for ionic-motion
   TEIN   =    0.0    initial temperature
   TEBEG  =    0.0;   TEEND  =   0.0 temperature during run
   SMASS  =  -3.00    Nose mass-parameter (am)
   estimated Nose-frequenzy (Omega)   =  0.10E-29 period in steps =****** mass=  -0.220E-26a.u.
   SCALEE = 1.0000    scale energy and forces
   NPACO  =    256;   APACO  = 16.0  distance and # of slots for P.C.
   PSTRESS=    0.0 pullay stress

  Mass of Ions in am
   POMASS =  16.00  1.00
  Ionic Valenz
   ZVAL   =   6.00  1.00
  Atomic Wigner-Seitz radii
   RWIGS  =  -1.00 -1.00
  virtual crystal weights 
   VCA    =   1.00  1.00
   NELECT =     248.0000    total number of electrons
   NUPDOWN=      -1.0000    fix difference up-down

 DOS related values:
   EMIN   =  10.00;   EMAX   =-10.00  energy-range for DOS
   EFERMI =   0.00
   ISMEAR =    -1;   SIGMA  =   0.05  broadening in eV -4-tet -1-fermi 0-gaus

 Electronic relaxation 2 (details)
   IALGO  =     48    algorithm
   LDIAG  =      T    sub-space diagonalisation (order eigenvalues)
   LSUBROT=      F    optimize rotation matrix (better conditioning)
   TURBO    =      0    0=normal 1=particle mesh
   IRESTART =      0    0=no restart 2=restart with 2 vectors
   NREBOOT  =      0    no. of reboots
   NMIN     =      0    reboot dimension
   EREF     =   0.00    reference energy to select bands
   IMIX   =      4    mixing-type and parameters
     AMIX     =   0.40;   BMIX     =  1.00
     AMIX_MAG =   1.60;   BMIX_MAG =  1.00
     AMIN     =   0.10
     WC   =   100.;   INIMIX=   1;  MIXPRE=   1;  MAXMIX=  40

 Intra band minimization:
   WEIMIN = 0.0000     energy-eigenvalue tresh-hold
   EBREAK =  0.15E-08  absolut break condition
   DEPER  =   0.30     relativ break condition  

   TIME   =   0.40     timestep for ELM

  volume/ion in A,a.u.               =      10.17        68.61
  Fermi-wavevector in a.u.,A,eV,Ry     =   1.047947  1.980334 14.941835  1.098194
  Thomas-Fermi vector in A             =   2.182849
 
 Write flags
   LWAVE        =      F    write WAVECAR
   LDOWNSAMPLE  =      F    k-point downsampling of WAVECAR
   LCHARG       =      F    write CHGCAR
   LVTOT        =      F    write LOCPOT, total local potential
   LVHAR        =      T    write LOCPOT, Hartree potential only
   LELF         =      F    write electronic localiz. function (ELF)
   LORBIT       =      0    0 simple, 1 ext, 2 COOP (PROOUT), +10 PAW based schemes


 Dipole corrections
   LMONO  =      F    monopole corrections only (constant potential shift)
   LDIPOL =      F    correct potential (dipole corrections)
   IDIPOL =      0    1-x, 2-y, 3-z, 4-all directions 
   EPSILON=  1.0000000 bulk dielectric constant

 Exchange correlation treatment:
   GGA     =    --    GGA type
   LEXCH   =     8    internal setting for exchange type
   VOSKOWN=      0    Vosko Wilk Nusair interpolation
   LHFCALC =     F    Hartree Fock is set to
   LHFONE  =     F    Hartree Fock one center treatment
   AEXX    =    0.0000 exact exchange contribution

 Linear response parameters
   LEPSILON=     F    determine dielectric tensor
   LRPA    =     F    only Hartree local field effects (RPA)
   LNABLA  =     F    use nabla operator in PAW spheres
   LVEL    =     F    velocity operator in full k-point grid
   LINTERFAST=   F  fast interpolation
   KINTER  =     0    interpolate to denser k-point grid
   CSHIFT  =0.1000    complex shift for real part using Kramers Kronig
   OMEGAMAX=  -1.0    maximum frequency
   DEG_THRESHOLD= 0.2000000E-02 threshold for treating states as degnerate
   RTIME   =   -0.100 relaxation time in fs
  (WPLASMAI=    0.000 imaginary part of plasma frequency in eV, 0.658/RTIME)
   DFIELD  = 0.0000000 0.0000000 0.0000000 field for delta impulse in time
 
 Orbital magnetization related:
   ORBITALMAG=     F  switch on orbital magnetization
   LCHIMAG   =     F  perturbation theory with respect to B field
   DQ        =  0.001000  dq finite difference perturbation B field
   LLRAUG    =     F  two centre corrections for induced B field



--------------------------------------------------------------------------------------------------------


 Static calculation
 charge density and potential will be updated during run
 non-spin polarized calculation
 RMM-DIIS sequential band-by-band
 perform sub-space diagonalisation
    before iterative eigenvector-optimisation
 modified Broyden-mixing scheme, WC =      100.0
 initial mixing is a Kerker type mixing with AMIX =  0.4000 and BMIX =      1.0000
 Hartree-type preconditioning will be used
 using additional bands           48
 real space projection scheme for non local part
 use partial core corrections
 calculate Harris-corrections to forces 
   (improved forces if not selfconsistent)
 use gradient corrections 
 use of overlap-Matrix (Vanderbilt PP)
 Fermi-smearing in eV        SIGMA  =   0.05


--------------------------------------------------------------------------------------------------------


  energy-cutoff  :      400.00
  volume of cell :      945.49
      direct lattice vectors                 reciprocal lattice vectors
     9.814900000  0.000000000  0.000000000     0.101885908  0.000000000  0.000000000
     0.000000000  9.814900000  0.000000000     0.000000000  0.101885908  0.000000000
     0.000000000  0.000000000  9.814900000     0.000000000  0.000000000  0.101885908

  length of vectors
     9.814900000  9.814900000  9.814900000     0.101885908  0.101885908  0.101885908


 
 k-points in units of 2pi/SCALE and weight: automatic mesh                          
   0.00000000  0.00000000  0.00000000       0.001
   0.01018859  0.00000000  0.00000000       0.002
   0.02037718  0.00000000  0.00000000       0.002
   0.03056577  0.00000000  0.00000000       0.002
   0.04075436  0.00000000  0.00000000       0.002
   0.05094295  0.00000000  0.00000000       0.001
   0.00000000  0.01018859  0.00000000       0.002
   0.01018859  0.01018859  0.00000000       0.002
   0.02037718  0.01018859  0.00000000       0.002
   0.03056577  0.01018859  0.00000000       0.002
   0.04075436  0.01018859  0.00000000       0.002
   0.05094295  0.01018859  0.00000000       0.002
  -0.04075436  0.01018859  0.00000000       0.002
  -0.03056577  0.01018859  0.00000000       0.002
  -0.02037718  0.01018859  0.00000000       0.002
  -0.01018859  0.01018859  0.00000000       0.002
   0.00000000  0.02037718  0.00000000       0.002
   0.01018859  0.02037718  0.00000000       0.002
   0.02037718  0.02037718  0.00000000       0.002
   0.03056577  0.02037718  0.00000000       0.002
   0.04075436  0.02037718  0.00000000       0.002
   0.05094295  0.02037718  0.00000000       0.002
  -0.04075436  0.02037718  0.00000000       0.002
  -0.03056577  0.02037718  0.00000000       0.002
  -0.02037718  0.02037718  0.00000000       0.002
  -0.01018859  0.02037718  0.00000000       0.002
   0.00000000  0.03056577  0.00000000       0.002
   0.01018859  0.03056577  0.00000000       0.002
   0.02037718  0.03056577  0.00000000       0.002
   0.03056577  0.03056577  0.00000000       0.002
   0.04075436  0.03056577  0.00000000       0.002
   0.05094295  0.03056577  0.00000000       0.002
  -0.04075436  0.03056577  0.00000000       0.002
  -0.03056577  0.03056577  0.00000000       0.002
  -0.02037718  0.03056577  0.00000000       0.002
  -0.01018859  0.03056577  0.00000000       0.002
   0.00000000  0.04075436  0.00000000       0.002
   0.01018859  0.04075436  0.00000000       0.002
   0.02037718  0.04075436  0.00000000       0.002
   0.03056577  0.04075436  0.00000000       0.002
   0.04075436  0.04075436  0.00000000       0.002
   0.05094295  0.04075436  0.00000000       0.002
  -0.04075436  0.04075436  0.00000000       0.002
  -0.03056577  0.04075436  0.00000000       0.002
  -0.02037718  0.04075436  0.00000000       0.002
  -0.01018859  0.04075436  0.00000000       0.002
   0.00000000  0.05094295  0.00000000       0.001
   0.01018859  0.05094295  0.00000000       0.002
   0.02037718  0.05094295  0.00000000       0.002
   0.03056577  0.05094295  0.00000000       0.002
   0.04075436  0.05094295  0.00000000       0.002
   0.05094295  0.05094295  0.00000000       0.001
   0.00000000  0.00000000  0.01018859       0.002
   0.01018859  0.00000000  0.01018859       0.002
   0.02037718  0.00000000  0.01018859       0.002
   0.03056577  0.00000000  0.01018859       0.002
   0.04075436  0.00000000  0.01018859       0.002
   0.05094295  0.00000000  0.01018859       0.002
  -0.04075436  0.00000000  0.01018859       0.002
  -0.03056577  0.00000000  0.01018859       0.002
  -0.02037718  0.00000000  0.01018859       0.002
  -0.01018859  0.00000000  0.01018859       0.002
   0.00000000  0.01018859  0.01018859       0.002
   0.01018859  0.01018859  0.01018859       0.002
   0.02037718  0.01018859  0.01018859       0.002
   0.03056577  0.01018859  0.01018859       0.002
   0.04075436  0.01018859  0.01018859       0.002
   0.05094295  0.01018859  0.01018859       0.002
  -0.04075436  0.01018859  0.01018859       0.002
  -0.03056577  0.01018859  0.01018859       0.002
  -0.02037718  0.01018859  0.01018859       0.002
  -0.01018859  0.01018859  0.01018859       0.002
   0.00000000  0.02037718  0.01018859       0.002
   0.01018859  0.02037718  0.01018859       0.002
   0.02037718  0.02037718  0.01018859       0.002
   0.03056577  0.02037718  0.01018859       0.002
   0.04075436  0.02037718  0.01018859       0.002
   0.05094295  0.02037718  0.01018859       0.002
  -0.04075436  0.02037718  0.01018859       0.002
  -0.03056577  0.02037718  0.01018859       0.002
  -0.02037718  0.02037718  0.01018859       0.002
  -0.01018859  0.02037718  0.01018859       0.002
   0.00000000  0.03056577  0.01018859       0.002
   0.01018859  0.03056577  0.01018859       0.002
   0.02037718  0.03056577  0.01018859       0.002
   0.03056577  0.03056577  0.01018859       0.002
   0.04075436  0.03056577  0.01018859       0.002
   0.05094295  0.03056577  0.01018859       0.002
  -0.04075436  0.03056577  0.01018859       0.002
  -0.03056577  0.03056577  0.01018859       0.002
  -0.02037718  0.03056577  0.01018859       0.002
  -0.01018859  0.03056577  0.01018859       0.002
   0.00000000  0.04075436  0.01018859       0.002
   0.01018859  0.04075436  0.01018859       0.002
   0.02037718  0.04075436  0.01018859       0.002
   0.03056577  0.04075436  0.01018859       0.002
   0.04075436  0.04075436  0.01018859       0.002
   0.05094295  0.04075436  0.01018859       0.002
  -0.04075436  0.04075436  0.01018859       0.002
  -0.03056577  0.04075436  0.01018859       0.002
  -0.02037718  0.04075436  0.01018859       0.002
  -0.01018859  0.04075436  0.01018859       0.002
   0.00000000  0.05094295  0.01018859       0.002
   0.01018859  0.05094295  0.01018859       0.002
   0.02037718  0.05094295  0.01018859       0.002
   0.03056577  0.05094295  0.01018859       0.002
   0.04075436  0.05094295  0.01018859       0.002
   0.05094295  0.05094295  0.01018859       0.002
  -0.04075436  0.05094295  0.01018859       0.002
  -0.03056577  0.05094295  0.01018859       0.002
  -0.02037718  0.05094295  0.01018859       0.002
  -0.01018859  0.05094295  0.01018859       0.002
   0.00000000 -0.04075436  0.01018859       0.002
   0.01018859 -0.04075436  0.01018859       0.002
   0.02037718 -0.04075436  0.01018859       0.002
   0.03056577 -0.04075436  0.01018859       0.002
   0.04075436 -0.04075436  0.01018859       0.002
   0.05094295 -0.04075436  0.01018859       0.002
  -0.04075436 -0.04075436  0.01018859       0.002
  -0.03056577 -0.04075436  0.01018859       0.002
  -0.02037718 -0.04075436  0.01018859       0.002
  -0.01018859 -0.04075436  0.01018859       0.002
   0.00000000 -0.03056577  0.01018859       0.002
   0.01018859 -0.03056577  0.01018859       0.002
   0.02037718 -0.03056577  0.01018859       0.002
   0.03056577 -0.03056577  0.01018859       0.002
   0.04075436 -0.03056577  0.01018859       0.002
   0.05094295 -0.03056577  0.01018859       0.002
  -0.04075436 -0.03056577  0.01018859       0.002
  -0.03056577 -0.03056577  0.01018859       0.002
  -0.02037718 -0.03056577  0.01018859       0.002
  -0.01018859 -0.03056577  0.01018859       0.002
   0.00000000 -0.02037718  0.01018859       0.002
   0.01018859 -0.02037718  0.01018859       0.002
   0.02037718 -0.02037718  0.01018859       0.002
   0.03056577 -0.02037718  0.01018859       0.002
   0.04075436 -0.02037718  0.01018859       0.002
   0.05094295 -0.02037718  0.01018859       0.002
  -0.04075436 -0.02037718  0.01018859       0.002
  -0.03056577 -0.02037718  0.01018859       0.002
  -0.02037718 -0.02037718  0.01018859       0.002
  -0.01018859 -0.02037718  0.01018859       0.002
   0.00000000 -0.01018859  0.01018859       0.002
   0.01018859 -0.01018859  0.01018859       0.002
   0.02037718 -0.01018859  0.01018859       0.002
   0.03056577 -0.01018859  0.01018859       0.002
   0.04075436 -0.01018859  0.01018859       0.002
   0.05094295 -0.01018859  0.01018859       0.002
  -0.04075436 -0.01018859  0.01018859       0.002
  -0.03056577 -0.01018859  0.01018859       0.002
  -0.02037718 -0.01018859  0.01018859       0.002
  -0.01018859 -0.01018859  0.01018859       0.002
   0.00000000  0.00000000  0.02037718       0.002
   0.01018859  0.00000000  0.02037718       0.002
   0.02037718  0.00000000  0.02037718       0.002
   0.03056577  0.00000000  0.02037718       0.002
   0.04075436  0.00000000  0.02037718       0.002
   0.05094295  0.00000000  0.02037718       0.002
  -0.04075436  0.00000000  0.02037718       0.002
  -0.03056577  0.00000000  0.02037718       0.002
  -0.02037718  0.00000000  0.02037718       0.002
  -0.01018859  0.00000000  0.02037718       0.002
   0.00000000  0.01018859  0.02037718       0.002
   0.01018859  0.01018859  0.02037718       0.002
   0.02037718  0.01018859  0.02037718       0.002
   0.03056577  0.01018859  0.02037718       0.002
   0.04075436  0.01018859  0.02037718       0.002
   0.05094295  0.01018859  0.02037718       0.002
  -0.04075436  0.01018859  0.02037718       0.002
  -0.03056577  0.01018859  0.02037718       0.002
  -0.02037718  0.01018859  0.02037718       0.002
  -0.01018859  0.01018859  0.02037718       0.002
   0.00000000  0.02037718  0.02037718       0.002
   0.01018859  0.02037718  0.02037718       0.002
   0.02037718  0.02037718  0.02037718       0.002
   0.03056577  0.02037718  0.02037718       0.002
   0.04075436  0.02037718  0.02037718       0.002
   0.05094295  0.02037718  0.02037718       0.002
  -0.04075436  0.02037718  0.02037718       0.002
  -0.03056577  0.02037718  0.02037718       0.002
  -0.02037718  0.02037718  0.02037718       0.002
  -0.01018859  0.02037718  0.02037718       0.002
   0.00000000  0.03056577  0.02037718       0.002
   0.01018859  0.03056577  0.02037718       0.002
   0.02037718  0.03056577  0.02037718       0.002
   0.03056577  0.03056577  0.02037718       0.002
   0.04075436  0.03056577  0.02037718       0.002
   0.05094295  0.03056577  0.02037718       0.002
  -0.04075436  0.03056577  0.02037718       0.002
  -0.03056577  0.03056577  0.02037718       0.002
  -0.02037718  0.03056577  0.02037718       0.002
  -0.01018859  0.03056577  0.02037718       0.002
   0.00000000  0.04075436  0.02037718       0.002
   0.01018859  0.04075436  0.02037718       0.002
   0.02037718  0.04075436  0.02037718       0.002
   0.03056577  0.04075436  0.02037718       0.002
   0.04075436  0.04075436  0.02037718       0.002
   0.05094295  0.04075436  0.02037718       0.002
  -0.04075436  0.04075436  0.02037718       0.002
  -0.03056577  0.04075436  0.02037718       0.002
  -0.02037718  0.04075436  0.02037718       0.002
  -0.01018859  0.04075436  0.02037718       0.002
   0.00000000  0.05094295  0.02037718       0.002
   0.01018859  0.05094295  0.02037718       0.002
   0.02037718  0.05094295  0.02037718       0.002
   0.03056577  0.05094295  0.02037718       0.002
   0.04075436  0.05094295  0.02037718       0.002
   0.05094295  0.05094295  0.02037718       0.002
  -0.04075436  0.05094295  0.02037718       0.002
  -0.03056577  0.05094295  0.02037718       0.002
  -0.02037718  0.05094295  0.02037718       0.002
  -0.01018859  0.05094295  0.02037718       0.002
   0.00000000 -0.04075436  0.02037718       0.002
   0.01018859 -0.04075436  0.02037718       0.002
   0.02037718 -0.04075436  0.02037718       0.002
   0.03056577 -0.04075436  0.02037718       0.002
   0.04075436 -0.04075436  0.02037718       0.002
   0.05094295 -0.04075436  0.02037718       0.002
  -0.04075436 -0.04075436  0.02037718       0.002
  -0.03056577 -0.04075436  0.02037718       0.002
  -0.02037718 -0.04075436  0.02037718       0.002
  -0.01018859 -0.04075436  0.02037718       0.002
   0.00000000 -0.03056577  0.02037718       0.002
   0.01018859 -0.03056577  0.02037718       0.002
   0.02037718 -0.03056577  0.02037718       0.002
   0.03056577 -0.03056577  0.02037718       0.002
   0.04075436 -0.03056577  0.02037718       0.002
   0.05094295 -0.03056577  0.02037718       0.002
  -0.04075436 -0.03056577  0.02037718       0.002
  -0.03056577 -0.03056577  0.02037718       0.002
  -0.02037718 -0.03056577  0.02037718       0.002
  -0.01018859 -0.03056577  0.02037718       0.002
   0.00000000 -0.02037718  0.02037718       0.002
   0.01018859 -0.02037718  0.02037718       0.002
   0.02037718 -0.02037718  0.02037718       0.002
   0.03056577 -0.02037718  0.02037718       0.002
   0.04075436 -0.02037718  0.02037718       0.002
   0.05094295 -0.02037718  0.02037718       0.002
  -0.04075436 -0.02037718  0.02037718       0.002
  -0.03056577 -0.02037718  0.02037718       0.002
  -0.02037718 -0.02037718  0.02037718       0.002
  -0.01018859 -0.02037718  0.02037718       0.002
   0.00000000 -0.01018859  0.02037718       0.002
   0.01018859 -0.01018859  0.02037718       0.002
   0.02037718 -0.01018859  0.02037718       0.002
   0.03056577 -0.01018859  0.02037718       0.002
   0.04075436 -0.01018859  0.02037718       0.002
   0.05094295 -0.01018859  0.02037718       0.002
  -0.04075436 -0.01018859  0.02037718       0.002
  -0.03056577 -0.01018859  0.02037718       0.002
  -0.02037718 -0.01018859  0.02037718       0.002
  -0.01018859 -0.01018859  0.02037718       0.002
   0.00000000  0.00000000  0.03056577       0.002
   0.01018859  0.00000000  0.03056577       0.002
   0.02037718  0.00000000  0.03056577       0.002
   0.03056577  0.00000000  0.03056577       0.002
   0.04075436  0.00000000  0.03056577       0.002
   0.05094295  0.00000000  0.03056577       0.002
  -0.04075436  0.00000000  0.03056577       0.002
  -0.03056577  0.00000000  0.03056577       0.002
  -0.02037718  0.00000000  0.03056577       0.002
  -0.01018859  0.00000000  0.03056577       0.002
   0.00000000  0.01018859  0.03056577       0.002
   0.01018859  0.01018859  0.03056577       0.002
   0.02037718  0.01018859  0.03056577       0.002
   0.03056577  0.01018859  0.03056577       0.002
   0.04075436  0.01018859  0.03056577       0.002
   0.05094295  0.01018859  0.03056577       0.002
  -0.04075436  0.01018859  0.03056577       0.002
  -0.03056577  0.01018859  0.03056577       0.002
  -0.02037718  0.01018859  0.03056577       0.002
  -0.01018859  0.01018859  0.03056577       0.002
   0.00000000  0.02037718  0.03056577       0.002
   0.01018859  0.02037718  0.03056577       0.002
   0.02037718  0.02037718  0.03056577       0.002
   0.03056577  0.02037718  0.03056577       0.002
   0.04075436  0.02037718  0.03056577       0.002
   0.05094295  0.02037718  0.03056577       0.002
  -0.04075436  0.02037718  0.03056577       0.002
  -0.03056577  0.02037718  0.03056577       0.002
  -0.02037718  0.02037718  0.03056577       0.002
  -0.01018859  0.02037718  0.03056577       0.002
   0.00000000  0.03056577  0.03056577       0.002
   0.01018859  0.03056577  0.03056577       0.002
   0.02037718  0.03056577  0.03056577       0.002
   0.03056577  0.03056577  0.03056577       0.002
   0.04075436  0.03056577  0.03056577       0.002
   0.05094295  0.03056577  0.03056577       0.002
  -0.04075436  0.03056577  0.03056577       0.002
  -0.03056577  0.03056577  0.03056577       0.002
  -0.02037718  0.03056577  0.03056577       0.002
  -0.01018859  0.03056577  0.03056577       0.002
   0.00000000  0.04075436  0.03056577       0.002
   0.01018859  0.04075436  0.03056577       0.002
   0.02037718  0.04075436  0.03056577       0.002
   0.03056577  0.04075436  0.03056577       0.002
   0.04075436  0.04075436  0.03056577       0.002
   0.05094295  0.04075436  0.03056577       0.002
  -0.04075436  0.04075436  0.03056577       0.002
  -0.03056577  0.04075436  0.03056577       0.002
  -0.02037718  0.04075436  0.03056577       0.002
  -0.01018859  0.04075436  0.03056577       0.002
   0.00000000  0.05094295  0.03056577       0.002
   0.01018859  0.05094295  0.03056577       0.002
   0.02037718  0.05094295  0.03056577       0.002
   0.03056577  0.05094295  0.03056577       0.002
   0.04075436  0.05094295  0.03056577       0.002
[...]
   -.832E+02 -.142E+02 -.369E+02   0.122E+03 0.144E+02 0.361E+02   -.385E+02 -.230E+01 0.643E+01   0.113E-02 0.366E-03 0.153E-02
   -.235E+02 0.182E+02 0.233E+02   0.297E+02 -.483E+02 -.241E+02   -.556E+01 0.328E+02 -.274E+00   -.347E-03 0.178E-02 -.259E-03
   0.397E+02 -.762E+02 -.218E+02   -.771E+02 0.727E+02 0.137E+02   0.357E+02 0.815E+00 0.746E+01   -.583E-03 -.221E-02 0.627E-03
   -.327E+02 0.228E+02 -.731E+02   0.526E+02 -.185E+02 0.104E+03   -.213E+02 -.487E+01 -.339E+02   0.836E-03 -.845E-03 0.122E-02
   0.821E+02 -.163E+02 -.768E+02   -.706E+02 0.499E+02 0.762E+02   -.136E+02 -.320E+02 0.425E+00   -.448E-03 0.630E-03 -.742E-03
   -.888E+01 0.212E+02 0.146E+02   0.390E+02 -.269E+02 -.131E+02   -.348E+02 0.601E+01 -.119E+01   0.236E-03 0.368E-03 -.367E-03
   -.280E+02 -.196E+02 -.158E+02   0.268E+02 0.390E+02 -.200E+02   0.150E+01 -.209E+02 0.384E+02   0.824E-03 0.191E-02 -.856E-03
   0.686E+02 0.579E+02 0.218E+02   -.674E+02 -.664E+02 -.516E+02   -.386E+01 0.410E+01 0.288E+02   -.116E-02 -.116E-02 -.176E-03
   0.973E+00 0.426E+02 0.457E+01   0.559E+01 -.747E+02 -.150E+02   -.589E+01 0.292E+02 0.838E+01   0.524E-03 0.253E-02 -.241E-03
   -.513E+02 -.117E+02 0.734E+02   0.647E+02 0.572E+01 -.107E+03   -.128E+02 0.639E+01 0.347E+02   0.170E-02 -.245E-03 -.193E-02
   -.600E+02 0.546E+02 -.903E+02   0.520E+02 -.958E+02 0.119E+03   0.687E+01 0.389E+02 -.301E+02   0.233E-03 -.480E-02 0.285E-02
   0.374E+02 -.136E+02 -.809E-01   -.605E+02 0.589E+01 -.464E+01   0.253E+02 0.769E+01 0.439E+01   0.180E-03 0.275E-03 -.466E-03
   -.184E+01 0.349E+02 0.621E+02   -.271E+02 -.625E+02 -.716E+02   0.232E+02 0.290E+02 0.778E+01   -.171E-02 0.147E-02 -.444E-03
   0.748E+01 -.216E+02 -.168E+02   0.101E+02 0.570E+02 0.127E+02   -.185E+02 -.352E+02 0.446E+01   -.844E-03 0.150E-02 -.599E-03
   0.221E+02 -.666E+02 0.128E+02   -.275E+02 0.750E+02 -.136E+02   0.428E+01 -.763E+01 0.755E+00   0.300E-03 -.443E-03 -.931E-04
   -.422E+02 -.149E+02 0.212E+02   0.450E+02 0.146E+02 -.222E+02   -.432E+01 -.901E+00 0.208E+01   0.907E-04 -.288E-03 -.133E-04
   0.481E+02 0.806E+01 0.523E+02   -.530E+02 -.982E+01 -.592E+02   0.478E+01 0.985E+00 0.661E+01   0.133E-03 0.135E-03 0.173E-03
   0.102E+02 0.389E+02 -.358E+02   -.112E+02 -.427E+02 0.383E+02   0.721E+00 0.525E+01 -.381E+01   -.799E-05 0.245E-03 0.209E-04
   0.165E+02 0.562E+02 -.673E+01   -.187E+02 -.619E+02 0.609E+01   0.270E+01 0.642E+01 0.364E+00   -.965E-04 0.101E-03 0.138E-04
   -.564E+02 -.236E-01 -.344E+02   0.662E+02 0.584E+00 0.394E+02   -.760E+01 -.122E+01 -.433E+01   -.285E-03 -.445E-04 -.774E-04
   -.506E+02 -.291E+02 0.816E+01   0.557E+02 0.296E+02 -.749E+01   -.638E+01 -.153E+01 0.242E+00   -.329E-03 -.328E-03 0.976E-04
   0.287E+02 0.149E+02 -.416E+02   -.302E+02 -.157E+02 0.454E+02   0.265E+01 0.174E+01 -.533E+01   0.559E-04 -.955E-05 -.188E-03
   0.229E+02 -.772E+02 -.944E+01   -.276E+02 0.900E+02 0.123E+02   0.334E+01 -.939E+01 -.239E+01   -.520E-04 0.154E-03 -.149E-03
   0.840E+01 0.399E+02 -.551E+02   -.114E+02 -.464E+02 0.661E+02   0.212E+01 0.439E+01 -.831E+01   -.124E-03 0.162E-03 -.164E-03
   0.316E+02 -.535E+02 0.473E+02   -.364E+02 0.608E+02 -.525E+02   0.381E+01 -.640E+01 0.493E+01   0.807E-04 -.183E-03 0.125E-03
   0.299E+02 0.216E+02 -.293E+02   -.322E+02 -.237E+02 0.299E+02   0.322E+01 0.326E+01 -.252E+01   0.521E-04 0.392E-05 -.157E-03
   0.395E+02 0.211E+02 -.438E+02   -.445E+02 -.225E+02 0.497E+02   0.493E+01 0.175E+01 -.606E+01   0.381E-04 -.642E-04 -.128E-03
   -.558E+02 0.832E+02 0.120E+02   0.647E+02 -.961E+02 -.135E+02   -.602E+01 0.899E+01 0.853E+00   -.186E-03 0.105E-03 -.131E-04
   0.661E+02 -.325E+02 0.331E+02   -.773E+02 0.394E+02 -.383E+02   0.837E+01 -.466E+01 0.395E+01   0.149E-03 -.245E-03 0.935E-04
   -.115E+02 -.222E+02 -.358E+02   0.122E+02 0.239E+02 0.385E+02   -.180E+01 -.212E+01 -.477E+01   -.183E-03 -.324E-03 -.286E-03
   0.214E+02 -.375E+02 0.120E+02   -.219E+02 0.389E+02 -.124E+02   0.116E+01 -.453E+01 0.563E+00   0.161E-03 -.223E-03 0.208E-04
   0.291E+02 0.236E+02 -.468E+02   -.320E+02 -.258E+02 0.513E+02   0.323E+01 0.322E+01 -.544E+01   0.417E-04 0.427E-03 -.334E-03
   0.175E+02 0.258E+01 0.573E+02   -.206E+02 -.270E+01 -.659E+02   0.285E+01 -.598E+00 0.758E+01   0.128E-03 -.111E-03 0.302E-03
   -.133E+02 -.582E+02 -.149E+02   0.157E+02 0.649E+02 0.154E+02   -.148E+01 -.683E+01 -.900E-01   -.295E-05 -.354E-03 -.193E-04
   0.743E+02 0.171E+02 0.534E+01   -.871E+02 -.201E+02 -.759E+01   0.973E+01 0.200E+01 0.141E+01   0.344E-03 -.138E-04 0.686E-04
   -.240E+02 -.489E+02 0.420E+02   0.268E+02 0.549E+02 -.489E+02   -.218E+01 -.526E+01 0.636E+01   0.119E-03 -.304E-03 0.198E-03
   -.944E+01 0.696E+02 0.312E+01   0.127E+02 -.799E+02 -.464E+01   -.205E+01 0.856E+01 0.138E+01   -.158E-04 0.338E-03 0.308E-04
   0.587E+02 0.281E+02 -.528E+01   -.649E+02 -.276E+02 0.657E+01   0.649E+01 0.124E+01 -.112E+01   0.112E-03 0.233E-03 -.863E-05
   0.181E+02 -.198E+02 -.378E+02   -.219E+02 0.225E+02 0.437E+02   0.318E+01 -.218E+01 -.645E+01   -.467E-05 0.119E-03 -.189E-03
   -.277E+02 0.286E+02 -.171E+02   0.313E+02 -.316E+02 0.180E+02   -.374E+01 0.398E+01 -.240E+01   0.150E-04 0.992E-04 -.124E-03
   -.248E+02 -.668E+02 0.357E+01   0.263E+02 0.743E+02 -.475E+01   -.114E+01 -.758E+01 0.150E+01   -.150E-03 -.255E-03 0.299E-05
   0.340E+02 0.102E+02 -.943E+01   -.359E+02 -.106E+02 0.968E+01   0.468E+01 -.136E+00 0.664E+00   0.103E-03 0.989E-04 0.199E-04
   -.759E+01 0.275E+02 -.277E+02   0.784E+01 -.287E+02 0.296E+02   -.490E+00 0.164E+01 -.410E+01   -.290E-04 0.748E-04 -.344E-03
   0.226E+02 -.488E+02 -.881E+01   -.237E+02 0.529E+02 0.974E+01   0.219E+01 -.499E+01 -.200E+01   0.348E-04 0.126E-03 -.870E-04
   0.804E+01 -.319E+02 0.279E+02   -.738E+01 0.336E+02 -.305E+02   -.342E+00 -.263E+01 0.452E+01   0.154E-03 -.238E-03 0.561E-04
   0.676E+02 -.264E+02 -.476E+02   -.777E+02 0.306E+02 0.564E+02   0.716E+01 -.277E+01 -.683E+01   0.134E-03 -.208E-03 -.124E-03
   0.643E+02 0.303E+01 0.221E+02   -.738E+02 -.402E+01 -.262E+02   0.805E+01 0.660E+00 0.305E+01   0.251E-03 -.227E-03 0.879E-05
   -.134E+00 -.643E+02 -.101E+02   0.218E+01 0.731E+02 0.121E+02   -.101E+01 -.793E+01 -.199E+01   0.195E-03 -.449E-03 -.187E-04
   0.119E+02 0.921E+01 -.505E+02   -.119E+02 -.876E+01 0.512E+02   0.160E+01 0.849E+00 -.404E+01   0.162E-03 0.732E-04 0.491E-04
   0.452E+02 -.114E+02 0.328E+02   -.547E+02 0.142E+02 -.399E+02   0.757E+01 -.201E+01 0.526E+01   0.445E-03 0.113E-03 0.299E-03
   -.232E+02 -.383E+02 0.407E+02   0.228E+02 0.393E+02 -.406E+02   -.248E+01 -.319E+01 0.220E+01   -.137E-03 -.667E-04 0.116E-03
   0.269E+02 -.806E+01 -.235E+02   -.278E+02 0.908E+01 0.251E+02   0.335E+01 -.910E+00 -.255E+01   0.636E-04 0.142E-03 -.618E-04
   -.541E+02 -.640E+02 -.348E+02   0.634E+02 0.721E+02 0.385E+02   -.708E+01 -.629E+01 -.296E+01   -.259E-04 -.365E-03 0.116E-03
   -.235E+02 0.282E+02 -.188E+01   0.252E+02 -.315E+02 0.926E+00   -.236E+01 0.456E+01 0.871E+00   0.602E-04 -.374E-03 0.809E-04
   0.535E+02 0.112E+02 0.946E+01   -.591E+02 -.128E+02 -.888E+01   0.612E+01 0.125E+01 0.876E+00   0.408E-03 -.354E-04 0.145E-03
   -.728E+01 0.136E+02 0.555E+02   0.894E+01 -.139E+02 -.603E+02   -.101E+01 0.926E+00 0.623E+01   0.671E-04 -.548E-04 0.416E-03
   0.838E+02 0.207E+02 -.197E+02   -.887E+02 -.222E+02 0.202E+02   0.689E+01 0.147E+01 -.834E+00   0.149E-03 0.111E-03 -.929E-04
   -.280E+02 0.439E+02 -.176E+02   0.332E+02 -.519E+02 0.182E+02   -.495E+01 0.644E+01 0.234E-01   -.460E-04 0.241E-03 -.203E-04
   0.377E+02 0.543E+01 0.444E+02   -.386E+02 -.509E+01 -.453E+02   0.346E+01 0.214E-01 0.374E+01   0.946E-04 0.561E-04 0.321E-04
   0.329E+02 -.735E+01 -.301E+02   -.331E+02 0.754E+01 0.302E+02   0.238E+01 -.445E+00 -.324E+01   0.171E-03 0.306E-04 -.262E-03
   0.320E+02 0.263E+02 -.360E+02   -.365E+02 -.273E+02 0.379E+02   0.498E+01 0.205E+01 -.344E+01   0.193E-03 0.333E-03 -.103E-03
   -.546E+02 0.280E+01 -.576E+02   0.591E+02 -.363E+01 0.613E+02   -.485E+01 0.119E+01 -.496E+01   -.245E-04 0.272E-03 -.139E-03
   -.217E+02 -.459E+02 -.257E+02   0.261E+02 0.548E+02 0.321E+02   -.389E+01 -.703E+01 -.390E+01   -.144E-03 -.893E-04 -.206E-03
   0.514E+02 0.473E+02 -.297E+02   -.527E+02 -.486E+02 0.312E+02   0.344E+01 0.399E+01 -.279E+01   0.287E-04 -.140E-05 -.204E-03
   0.292E+02 -.580E+01 -.639E+02   -.339E+02 0.907E+01 0.746E+02   0.335E+01 -.167E+01 -.854E+01   -.413E-05 0.417E-03 0.181E-03
   -.987E+01 -.468E+02 0.449E+02   0.126E+02 0.543E+02 -.510E+02   -.204E+01 -.613E+01 0.582E+01   0.123E-03 0.480E-03 -.160E-03
   -.287E+02 -.252E+02 -.500E+02   0.323E+02 0.281E+02 0.541E+02   -.290E+01 -.264E+01 -.561E+01   0.786E-04 -.501E-06 -.361E-03
   0.422E+02 0.416E+01 -.769E+01   -.484E+02 -.547E+01 0.101E+02   0.610E+01 0.767E+00 -.284E+01   0.335E-03 0.305E-04 -.205E-03
   -.213E+00 -.120E+02 0.493E+02   -.172E+01 0.115E+02 -.561E+02   0.128E+01 -.135E+01 0.658E+01   0.146E-03 -.559E-03 0.334E-03
   -.387E+02 -.691E+02 -.576E+01   0.442E+02 0.824E+02 0.735E+01   -.340E+01 -.941E+01 0.247E+00   0.164E-04 -.622E-03 0.308E-03
   -.665E+01 -.250E+01 0.139E+02   0.597E+01 0.284E+01 -.134E+02   -.125E+01 0.581E+00 0.183E+01   -.200E-03 0.311E-04 0.122E-03
   -.203E+02 -.279E+02 -.274E+02   0.220E+02 0.294E+02 0.298E+02   -.276E+01 -.283E+01 -.396E+01   -.135E-03 0.104E-04 -.169E-03
   0.610E+01 -.397E+02 0.162E+02   -.731E+01 0.424E+02 -.165E+02   0.236E+01 -.486E+01 0.503E+00   -.306E-04 -.718E-04 0.169E-04
   -.794E+02 -.487E+01 -.110E+02   0.941E+02 0.620E+01 0.161E+02   -.102E+02 -.661E+00 -.309E+01   -.169E-03 0.165E-03 0.432E-05
   0.613E+02 0.723E+01 -.920E+01   -.679E+02 -.734E+01 0.957E+01   0.723E+01 0.628E+00 -.623E+00   0.127E-03 0.138E-03 -.494E-04
   -.213E+02 0.630E+02 -.414E+01   0.245E+02 -.716E+02 0.484E+01   -.291E+01 0.778E+01 -.599E+00   -.203E-03 0.202E-03 -.326E-04
 -----------------------------------------------------------------------------------------------
   0.218E+03 -.124E+03 -.156E+03   -.309E-12 -.284E-13 -.631E-13   -.218E+03 0.124E+03 0.156E+03   0.540E-02 -.510E-02 -.282E-02
 
 
 POSITION                                       TOTAL-FORCE (eV/Angst)
 -----------------------------------------------------------------------------------
      5.69341      3.77490      1.28080         2.933142      0.090931     -1.031526
      1.24440      7.95647      5.96829        -0.039181     -1.310143      1.414383
      0.84765      5.52625      7.38332        -2.171302     -0.220105     -0.520945
      0.68475      3.76007      3.99921        -0.003247     -0.025907      0.605541
      0.68254      7.49905      1.63968         2.218317     -1.343070     -3.359219
      7.06967      3.85530      7.43344         0.332074     -1.894704      2.010485
      5.63879      1.87556      7.75932        -3.310545      2.960687      1.344183
      0.13454      2.09568      1.80300         4.074609     -1.644145      2.984275
      2.74678      8.41872      9.59909        -1.171659      1.848539      0.632704
      8.24363      3.85368      0.21705        -0.666226      1.431225      0.296575
      2.67274      2.08845      6.92684         2.136162      0.192266      0.860918
      9.45128      3.24802      6.58723        -1.255688      0.025161     -0.066571
      7.13410      8.01310      8.55200         0.749284     -1.478413      1.346476
      6.64275      0.43076      4.26413        -3.171578      0.769836     -1.175059
      3.39393      5.98584      8.34537        -1.986494      0.980395      3.867815
      2.27545      1.34649      9.33074         2.577412     -0.566986     -3.132027
      4.57553      1.38007      0.90302         0.499034     -0.329943      0.720645
      6.70565      6.41553      4.11096         0.678457     -2.055057      5.571139
      8.28370      9.31400      2.32889         0.622891      2.651600     -1.030068
      3.35429      3.56444      4.31933        -1.638197     -2.644881     -0.613051
      4.05316      1.16593      3.72060        -1.342529     -0.578468     -2.911563
      0.03798      0.45249      6.19075        -2.183682      1.644208     -0.213548
      1.42618      0.35638      3.66375        -4.633200      0.279071      0.280247
      3.66890      8.18084      4.90610         0.374835     -1.411487      2.615887
      3.47044      5.33450      1.10671        -2.731560     -4.356643     -1.023230
      4.56969      7.21490      2.57170         0.672552     -2.853693     -2.069651
      5.44539      6.40043      6.98767         0.544230      0.394245      0.697267
      6.25553      3.49959      3.91328        -1.175213     -2.333959     -1.366584
      9.17293      6.41499      9.34168         2.186943     -0.003106     -0.292100
      5.90715      8.93706      0.96479        -5.702780      1.410824     -1.676211
      9.53855      6.52453      3.92067        -0.931517      0.225768      0.331561
      5.24039      4.61413      1.19475        -1.057102      0.774006     -0.093360
      6.65914      3.99341      0.80380        -1.539868     -1.180022      1.102370
      0.66679      7.82420      5.18790        -0.110258     -0.769293     -0.329685
      1.11238      7.11586      6.56261        -0.255484      1.432450     -1.302332
      0.48206      4.57660      7.35129         0.501847      0.694986     -0.272786
      1.66702      5.63221      7.86297         2.204931     -0.664645      0.742913
      1.69144      3.99380      3.99953        -1.278936     -1.036916      0.914203
      0.28687      3.46257      4.92000         1.172518      0.961614     -1.521975
      0.38915      8.33916      1.85550        -1.376303      3.446158      0.453366
      0.47778      7.07755      2.44558        -0.870395     -2.024183      2.680657
      6.64375      4.52762      6.90823        -0.996183      0.908178     -0.259899
      6.38235      3.18345      7.91153         0.931324      1.167281     -1.878350
      5.04303      1.64357      8.50952        -0.031379      0.300652     -0.166127
      6.13958      1.12815      7.70246         2.884677     -3.915381     -0.689739
      9.20694      2.51800      1.47570        -2.897911      2.226378     -1.231706
      0.45143      2.53668      2.73470        -1.132550     -0.445078     -2.036469
      2.44314      9.48704      9.50920         0.671596     -3.106016      0.116319
      2.26919      7.98539      0.56951         0.282283      1.023946     -0.891258
      7.89475      3.92357      9.12065        -0.232329     -0.714913     -1.051431
      8.45135      4.84963      0.23024         0.830367     -0.189742      0.406476
      1.77759      1.92007      6.78587        -3.083417     -0.958381     -0.838420
      2.89745      2.69390      6.20671         0.606927      0.737699     -0.561225
      9.67949      2.33456      6.44138         1.205626     -1.730607     -0.135743
      8.45898      3.04399      6.75631         0.328529      1.825895      0.170507
      6.72474      8.29563      9.41120        -0.640088      0.451626     -0.566772
      7.78660      7.31400      8.99033        -0.114290      0.949217     -1.421091
      6.78400      1.39181      4.06378         0.359057     -0.050772      0.314286
      5.54033      0.49125      4.08068         2.789192     -0.595019      0.905344
      3.51119      5.59600      9.38387        -0.237034      0.354350     -2.256246
      2.98292      6.89567      8.71890         1.074258     -0.935917     -1.076195
      2.31190      1.89212      8.40759         0.315413     -0.929016      1.914749
      1.62937      1.61000      0.11104        -2.913545      1.415949      2.056722
      3.67623      1.31914      0.57074        -1.391583     -0.332923     -0.994160
      4.67554      2.32127      1.13716         1.031578      0.869155     -0.022239
      6.25646      6.17933      5.14655         1.573436      1.300121     -3.363653
      5.94222      6.60875      3.60357        -1.920216      0.806456     -1.781705
      8.87115      0.31947      1.81317        -2.797207     -2.228879      2.297809
      7.43260      9.64035      2.98448         2.395876      0.113209     -0.906522
      4.01834      4.14611      4.59513         2.232523      1.723865      0.699506
      3.83197      2.62509      4.13254        -0.654719      1.277160     -0.084465
      3.04247      0.96249      3.57070         0.517447     -0.416734      1.456097
      4.21407      1.03089      2.70110         0.645916      0.636030      1.379199
      8.86757      0.21482      6.30956         1.946707     -0.118288     -0.349087
      0.60458      9.47575      6.18538         0.273053     -1.536309      0.696428
      0.66531      0.34916      2.85995         2.537821      0.344104      2.878539
      0.73409      0.48054      4.58582         2.168446     -0.245745     -3.028419
      2.87065      7.83505      5.47039         0.507676      0.966635     -1.479161
      4.36496      8.00149      5.62776        -0.385355      0.363173     -1.249492
      3.86943      6.07039      1.55191         0.426498      1.866815      2.503102
      2.86152      4.64244      1.64468         2.127631      2.743387     -1.250350
      4.23256      7.41086      3.42653        -1.398353      1.598450      2.164065
      4.78201      7.91912      1.95522         0.638385      1.461682     -0.252725
      5.87131      6.78634      7.83316         0.628818      0.189042     -1.482194
      4.54079      6.28376      7.41599        -0.048672     -0.542070     -0.407441
      6.06310      3.70046      2.93634        -0.662274     -1.811301     -0.252053
      6.57129      4.36250      3.89479         2.062491      3.909856      1.826829
      0.06967      6.07391      8.42980        -1.900632      0.910341      2.220814
      9.72118      6.95096      0.27035        -1.029888     -1.358175     -1.509266
      5.47127      0.09789      0.87801         1.142537     -2.178808      0.220253
      6.76999      9.01404      1.22859         4.584098      0.669656      1.925001
      8.53897      6.41229      4.00842         0.551123      0.518257     -0.253827
      0.05079      5.61231      3.99488         0.320022     -0.776692      0.103263
 -----------------------------------------------------------------------------------
    total drift:                               -0.010770      0.034637     -0.006687


--------------------------------------------------------------------------------------------------------



  FREE ENERGIE OF THE ION-ELECTRON SYSTEM (eV)
  ---------------------------------------------------
  free  energy   TOTEN  =      -449.53185770 eV

  energy  without entropy=     -449.53185770  energy(sigma->0) =     -449.53185770
 


--------------------------------------------------------------------------------------------------------


    POTLOK:  cpu time    0.0462: real time    0.0464


--------------------------------------------------------------------------------------------------------


     LOOP+:  cpu time 1424.9642: real time 1438.2983
    4ORBIT:  cpu time    0.0000: real time    0.0000

 total amount of memory used by VASP MPI-rank0   666501. kBytes
=======================================================================

   base      :      30000. kBytes
   nonlr-proj:       2425. kBytes
   fftplans  :       1123. kBytes
   grid      :       1850. kBytes
   one-center:         15. kBytes
   wavefun   :     631088. kBytes
 
  
  
 General timing and accounting informations for this job:
 ========================================================
  
                  Total CPU time used (sec):     1510.190
                            User time (sec):     1505.616
                          System time (sec):        4.574
                         Elapsed time (sec):     1525.263
  
                   Maximum memory used (kb):     1507108.
                   Average memory used (kb):           0.
  
                          Minor page faults:       221068
                          Major page faults:         1518
                 Voluntary context switches:        18021
