  72  72   0   0
  0.1278396E+03  0.1469770E-08  0.1469770E-08  0.4920040E-08  0.5000000E-15
  1.000000000000000E-004
  CAR 
 ice                                     
      1.84244435    -26.75620135  301     -5.30719381      1.00000000
    -26.756  0.0000E+00  0.0000E+00
    -26.661  0.0000E+00  0.0000E+00
    -26.566  0.0000E+00  0.0000E+00
    -26.470  0.0000E+00  0.0000E+00
    -26.375  0.0000E+00  0.0000E+00
    -26.280  0.0000E+00  0.0000E+00
    -26.184  0.0000E+00  0.0000E+00
    -26.089  0.0000E+00  0.0000E+00
    -25.994  0.0000E+00  0.0000E+00
    -25.898  0.1541E-05  0.1469E-06
    -25.803  0.1430E-04  0.1510E-05
    -25.708  0.9788E-04  0.1084E-04
    -25.612  0.6448E-03  0.7231E-04
    -25.517  0.3832E-02  0.4376E-03
    -25.422  0.1507E-01  0.1874E-02
    -25.326  0.2949E-01  0.4686E-02
    -25.231  0.3565E-01  0.8084E-02
    -25.136  0.4142E-01  0.1203E-01
    -25.040  0.5279E-01  0.1707E-01
    -24.945  0.4750E-01  0.2160E-01
    -24.850  0.2006E-01  0.2351E-01
    -24.754  0.4397E-02  0.2394E-01
    -24.659  0.1450E-02  0.2408E-01
    -24.564  0.4983E-02  0.2456E-01
    -24.468  0.2166E-01  0.2663E-01
    -24.373  0.4720E-01  0.3113E-01
    -24.278  0.4937E-01  0.3583E-01
    -24.182  0.3757E-01  0.3941E-01
    -24.087  0.3171E-01  0.4244E-01
    -23.992  0.2904E-01  0.4521E-01
    -23.896  0.1993E-01  0.4712E-01
    -23.801  0.7428E-02  0.4783E-01
    -23.706  0.1485E-02  0.4797E-01
    -23.610  0.1917E-03  0.4800E-01
    -23.515  0.3197E-05  0.4800E-01
    -23.420  0.0000E+00  0.4800E-01
    -23.324  0.0000E+00  0.4800E-01
    -23.229  0.0000E+00  0.4800E-01
    -23.134  0.0000E+00  0.4800E-01
    -23.038  0.0000E+00  0.4800E-01
    -22.943  0.0000E+00  0.4800E-01
    -22.848  0.0000E+00  0.4800E-01
    -22.752  0.0000E+00  0.4800E-01
    -22.657  0.0000E+00  0.4800E-01
    -22.562  0.0000E+00  0.4800E-01
    -22.466  0.0000E+00  0.4800E-01
    -22.371  0.0000E+00  0.4800E-01
    -22.276  0.0000E+00  0.4800E-01
    -22.180  0.0000E+00  0.4800E-01
    -22.085  0.0000E+00  0.4800E-01
    -21.990  0.0000E+00  0.4800E-01
    -21.894  0.0000E+00  0.4800E-01
    -21.799  0.0000E+00  0.4800E-01
    -21.704  0.0000E+00  0.4800E-01
    -21.608  0.0000E+00  0.4800E-01
    -21.513  0.0000E+00  0.4800E-01
    -21.418  0.0000E+00  0.4800E-01
    -21.322  0.0000E+00  0.4800E-01
    -21.227  0.0000E+00  0.4800E-01
    -21.132  0.0000E+00  0.4800E-01
    -21.036  0.0000E+00  0.4800E-01
    -20.941  0.0000E+00  0.4800E-01
    -20.846  0.0000E+00  0.4800E-01
    -20.750  0.0000E+00  0.4800E-01
    -20.655  0.0000E+00  0.4800E-01
    -20.560  0.0000E+00  0.4800E-01
    -20.464  0.0000E+00  0.4800E-01
    -20.369  0.0000E+00  0.4800E-01
    -20.274  0.0000E+00  0.4800E-01
    -20.179  0.0000E+00  0.4800E-01
    -20.083  0.0000E+00  0.4800E-01
    -19.988  0.0000E+00  0.4800E-01
    -19.893  0.0000E+00  0.4800E-01
    -19.797  0.0000E+00  0.4800E-01
    -19.702  0.0000E+00  0.4800E-01
    -19.607  0.0000E+00  0.4800E-01
    -19.511  0.0000E+00  0.4800E-01
    -19.416  0.0000E+00  0.4800E-01
    -19.321  0.0000E+00  0.4800E-01
    -19.225  0.0000E+00  0.4800E-01
    -19.130  0.0000E+00  0.4800E-01
    -19.035  0.0000E+00  0.4800E-01
    -18.939  0.0000E+00  0.4800E-01
    -18.844  0.0000E+00  0.4800E-01
    -18.749  0.0000E+00  0.4800E-01
    -18.653  0.0000E+00  0.4800E-01
    -18.558  0.0000E+00  0.4800E-01
    -18.463  0.0000E+00  0.4800E-01
    -18.367  0.0000E+00  0.4800E-01
    -18.272  0.0000E+00  0.4800E-01
    -18.177  0.0000E+00  0.4800E-01
    -18.081  0.0000E+00  0.4800E-01
    -17.986  0.0000E+00  0.4800E-01
    -17.891  0.0000E+00  0.4800E-01
    -17.795  0.0000E+00  0.4800E-01
    -17.700  0.0000E+00  0.4800E-01
    -17.605  0.0000E+00  0.4800E-01
    -17.509  0.0000E+00  0.4800E-01
    -17.414  0.0000E+00  0.4800E-01
    -17.319  0.0000E+00  0.4800E-01
    -17.223  0.0000E+00  0.4800E-01
    -17.128  0.0000E+00  0.4800E-01
    -17.033  0.0000E+00  0.4800E-01
    -16.937  0.0000E+00  0.4800E-01
    -16.842  0.0000E+00  0.4800E-01
    -16.747  0.0000E+00  0.4800E-01
    -16.651  0.0000E+00  0.4800E-01
    -16.556  0.0000E+00  0.4800E-01
    -16.461  0.0000E+00  0.4800E-01
    -16.365  0.0000E+00  0.4800E-01
    -16.270  0.0000E+00  0.4800E-01
    -16.175  0.0000E+00  0.4800E-01
    -16.079  0.0000E+00  0.4800E-01
    -15.984  0.0000E+00  0.4800E-01
    -15.889  0.0000E+00  0.4800E-01
    -15.793  0.0000E+00  0.4800E-01
    -15.698  0.0000E+00  0.4800E-01
    -15.603  0.0000E+00  0.4800E-01
    -15.507  0.0000E+00  0.4800E-01
    -15.412  0.0000E+00  0.4800E-01
    -15.317  0.0000E+00  0.4800E-01
    -15.221  0.0000E+00  0.4800E-01
    -15.126  0.0000E+00  0.4800E-01
    -15.031  0.0000E+00  0.4800E-01
    -14.935  0.0000E+00  0.4800E-01
    -14.840  0.0000E+00  0.4800E-01
    -14.745  0.0000E+00  0.4800E-01
    -14.649  0.0000E+00  0.4800E-01
    -14.554  0.0000E+00  0.4800E-01
    -14.459  0.0000E+00  0.4800E-01
    -14.363  0.0000E+00  0.4800E-01
    -14.268  0.0000E+00  0.4800E-01
    -14.173  0.0000E+00  0.4800E-01
    -14.077  0.0000E+00  0.4800E-01
    -13.982  0.0000E+00  0.4800E-01
    -13.887  0.0000E+00  0.4800E-01
    -13.791  0.0000E+00  0.4800E-01
    -13.696  0.0000E+00  0.4800E-01
    -13.601  0.0000E+00  0.4800E-01
    -13.505  0.2434E-04  0.4800E-01
    -13.410  0.1514E-03  0.4802E-01
    -13.315  0.1001E-02  0.4811E-01
    -13.220  0.6457E-02  0.4873E-01
    -13.124  0.3400E-01  0.5197E-01
    -13.029  0.8874E-01  0.6043E-01
    -12.934  0.8222E-01  0.6827E-01
    -12.838  0.3276E-01  0.7139E-01
    -12.743  0.1279E-01  0.7261E-01
    -12.648  0.2976E-01  0.7547E-01
    -12.552  0.7265E-01  0.8240E-01
    -12.457  0.8734E-01  0.9073E-01
    -12.362  0.4367E-01  0.9489E-01
    -12.266  0.9765E-02  0.9582E-01
    -12.171  0.1498E-02  0.9597E-01
    -12.076  0.8207E-04  0.9600E-01
    -11.980  0.0000E+00  0.9600E-01
    -11.885  0.0000E+00  0.9600E-01
    -11.790  0.0000E+00  0.9600E-01
    -11.694  0.0000E+00  0.9600E-01
    -11.599  0.0000E+00  0.9600E-01
    -11.504  0.0000E+00  0.9600E-01
    -11.408  0.1605E-06  0.9600E-01
    -11.313  0.3105E-05  0.9600E-01
    -11.218  0.2141E-04  0.9600E-01
    -11.122  0.1396E-03  0.9602E-01
    -11.027  0.8429E-03  0.9610E-01
    -10.932  0.3503E-02  0.9643E-01
    -10.836  0.7208E-02  0.9712E-01
    -10.741  0.9489E-02  0.9802E-01
    -10.646  0.1034E-01  0.9901E-01
    -10.550  0.1189E-01  0.1001E+00
    -10.455  0.1230E-01  0.1013E+00
    -10.360  0.1446E-01  0.1027E+00
    -10.264  0.1446E-01  0.1041E+00
    -10.169  0.1742E-01  0.1057E+00
    -10.074  0.1940E-01  0.1076E+00
     -9.978  0.2405E-01  0.1099E+00
     -9.883  0.2889E-01  0.1126E+00
     -9.788  0.2829E-01  0.1153E+00
     -9.692  0.2129E-01  0.1174E+00
     -9.597  0.1438E-01  0.1187E+00
     -9.502  0.8987E-02  0.1196E+00
     -9.406  0.3325E-02  0.1199E+00
     -9.311  0.7199E-03  0.1200E+00
     -9.216  0.3230E-03  0.1200E+00
     -9.120  0.1262E-02  0.1201E+00
     -9.025  0.5237E-02  0.1206E+00
     -8.930  0.1240E-01  0.1218E+00
     -8.834  0.2044E-01  0.1238E+00
     -8.739  0.3001E-01  0.1266E+00
     -8.644  0.3382E-01  0.1299E+00
     -8.548  0.2868E-01  0.1326E+00
     -8.453  0.2319E-01  0.1348E+00
     -8.358  0.1968E-01  0.1367E+00
     -8.262  0.1707E-01  0.1383E+00
     -8.167  0.1472E-01  0.1397E+00
     -8.072  0.1311E-01  0.1410E+00
     -7.976  0.1095E-01  0.1420E+00
     -7.881  0.9380E-02  0.1429E+00
     -7.786  0.6828E-02  0.1436E+00
     -7.690  0.3465E-02  0.1439E+00
     -7.595  0.1134E-02  0.1440E+00
     -7.500  0.1915E-02  0.1442E+00
     -7.404  0.1093E-01  0.1452E+00
     -7.309  0.4751E-01  0.1498E+00
     -7.214  0.9648E-01  0.1590E+00
     -7.118  0.7093E-01  0.1657E+00
     -7.023  0.2054E-01  0.1677E+00
     -6.928  0.7462E-02  0.1684E+00
     -6.832  0.2150E-01  0.1705E+00
     -6.737  0.6059E-01  0.1763E+00
     -6.642  0.8937E-01  0.1848E+00
     -6.546  0.5821E-01  0.1903E+00
     -6.451  0.1476E-01  0.1917E+00
     -6.356  0.2343E-02  0.1920E+00
     -6.261  0.2465E-03  0.1920E+00
     -6.165  0.0000E+00  0.1920E+00
     -6.070  0.0000E+00  0.1920E+00
     -5.975  0.0000E+00  0.1920E+00
     -5.879  0.0000E+00  0.1920E+00
     -5.784  0.0000E+00  0.1920E+00
     -5.689  0.0000E+00  0.1920E+00
     -5.593  0.0000E+00  0.1920E+00
     -5.498  0.0000E+00  0.1920E+00
     -5.403  0.0000E+00  0.1920E+00
     -5.307  0.0000E+00  0.1920E+00
     -5.212  0.0000E+00  0.1920E+00
     -5.117  0.0000E+00  0.1920E+00
     -5.021  0.0000E+00  0.1920E+00
     -4.926  0.0000E+00  0.1920E+00
     -4.831  0.0000E+00  0.1920E+00
     -4.735  0.0000E+00  0.1920E+00
     -4.640  0.0000E+00  0.1920E+00
     -4.545  0.0000E+00  0.1920E+00
     -4.449  0.0000E+00  0.1920E+00
     -4.354  0.0000E+00  0.1920E+00
     -4.259  0.0000E+00  0.1920E+00
     -4.163  0.0000E+00  0.1920E+00
     -4.068  0.0000E+00  0.1920E+00
     -3.973  0.0000E+00  0.1920E+00
     -3.877  0.0000E+00  0.1920E+00
     -3.782  0.0000E+00  0.1920E+00
     -3.687  0.0000E+00  0.1920E+00
     -3.591  0.0000E+00  0.1920E+00
     -3.496  0.0000E+00  0.1920E+00
     -3.401  0.0000E+00  0.1920E+00
     -3.305  0.0000E+00  0.1920E+00
     -3.210  0.0000E+00  0.1920E+00
     -3.115  0.0000E+00  0.1920E+00
     -3.019  0.0000E+00  0.1920E+00
     -2.924  0.0000E+00  0.1920E+00
     -2.829  0.0000E+00  0.1920E+00
     -2.733  0.7428E-06  0.1920E+00
     -2.638  0.4253E-05  0.1920E+00
     -2.543  0.3081E-04  0.1920E+00
     -2.447  0.1987E-03  0.1920E+00
     -2.352  0.1122E-02  0.1921E+00
     -2.257  0.3848E-02  0.1925E+00
     -2.161  0.6242E-02  0.1931E+00
     -2.066  0.7725E-02  0.1938E+00
     -1.971  0.6811E-02  0.1945E+00
     -1.875  0.8172E-02  0.1953E+00
     -1.780  0.8576E-02  0.1961E+00
     -1.685  0.6468E-02  0.1967E+00
     -1.589  0.8744E-02  0.1975E+00
     -1.494  0.1345E-01  0.1988E+00
     -1.399  0.1300E-01  0.2000E+00
     -1.303  0.1526E-01  0.2015E+00
     -1.208  0.2038E-01  0.2034E+00
     -1.113  0.2535E-01  0.2059E+00
     -1.017  0.2632E-01  0.2084E+00
     -0.922  0.2091E-01  0.2104E+00
     -0.827  0.2854E-01  0.2131E+00
     -0.731  0.3619E-01  0.2165E+00
     -0.636  0.3196E-01  0.2196E+00
     -0.541  0.3212E-01  0.2227E+00
     -0.445  0.3318E-01  0.2258E+00
     -0.350  0.3547E-01  0.2292E+00
     -0.255  0.4232E-01  0.2332E+00
     -0.159  0.4478E-01  0.2375E+00
     -0.064  0.4117E-01  0.2415E+00
      0.031  0.4212E-01  0.2455E+00
      0.127  0.4273E-01  0.2495E+00
      0.222  0.4514E-01  0.2539E+00
      0.317  0.5324E-01  0.2589E+00
      0.413  0.4322E-01  0.2631E+00
      0.508  0.2618E-01  0.2656E+00
      0.603  0.1836E-01  0.2673E+00
      0.698  0.5884E-02  0.2679E+00
      0.794  0.1021E-02  0.2680E+00
      0.889  0.1528E-03  0.2680E+00
      0.984  0.0000E+00  0.2680E+00
      1.080  0.0000E+00  0.2680E+00
      1.175  0.0000E+00  0.2680E+00
      1.270  0.0000E+00  0.2680E+00
      1.366  0.0000E+00  0.2680E+00
      1.461  0.0000E+00  0.2680E+00
      1.556  0.0000E+00  0.2680E+00
      1.652  0.0000E+00  0.2680E+00
      1.747  0.0000E+00  0.2680E+00
      1.842  0.0000E+00  0.2680E+00
