Loading vasp/5.4.4-mpi-cuda
  Loading requirement: gcc/8.5.0 intel-compilers/19.0.4 cuda/10.1.1
    intel-mpi/2019.4
 running on   40 total cores
 distrk:  each k-point on   40 cores,    1 groups
 distr:  one band on   20 cores,    2 groups
 using from now: INCAR     
 vasp.5.4.4.18Apr17-6-g9f103f2a35 (build Dec 06 2019 17:20:26) complex          
  
 POSCAR found type information on POSCAR  H  O 
 POSCAR found :  2 types and      72 ions
 scaLAPACK will be used

 ----------------------------------------------------------------------------- 
|                                                                             |
|           W    W    AA    RRRRR   N    N  II  N    N   GGGG   !!!           |
|           W    W   A  A   R    R  NN   N  II  NN   N  G    G  !!!           |
|           W    W  A    A  R    R  N N  N  II  N N  N  G       !!!           |
|           W WW W  AAAAAA  RRRRR   N  N N  II  N  N N  G  GGG   !            |
|           WW  WW  A    A  R   R   N   NN  II  N   NN  G    G                |
|           W    W  A    A  R    R  N    N  II  N    N   GGGG   !!!           |
|                                                                             |
|      For optimal performance we recommend to set                            |
|        NCORE= 4 - approx SQRT( number of cores)                             |
|      NCORE specifies how many cores store one orbital (NPAR=cpu/NCORE).     |
|      This setting can  greatly improve the performance of VASP for DFT.     |
|      The default,   NCORE=1            might be grossly inefficient         |
|      on modern multi-core architectures or massively parallel machines.     |
|      Do your own testing !!!!                                               |
|      Unfortunately you need to use the default for GW and RPA calculations. |
|      (for HF NCORE is supported but not extensively tested yet)             |
|                                                                             |
 ----------------------------------------------------------------------------- 

 LDA part: xc-table for Pade appr. of Perdew
 POSCAR, INCAR and KPOINTS ok, starting setup
 FFT: planning ...
 WAVECAR not read
 WARNING: chargedensity file is incomplete
 WARNING: random wavefunctions but no delay for mixing, default for NELMDL
 entering main loop
       N       E                     dE             d eps       ncg     rms          rms(c)
RMM:   1     0.327710472537E+04    0.32771E+04   -0.28113E+04   536   0.601E+02
RMM:   2     0.206981166432E+04   -0.12073E+04   -0.13620E+04   536   0.141E+02
RMM:   3     0.166693597674E+04   -0.40288E+03   -0.87113E+03   536   0.138E+02
RMM:   4     0.920751802060E+03   -0.74618E+03   -0.72158E+03   536   0.146E+02
RMM:   5     0.353629420681E+03   -0.56712E+03   -0.54394E+03   536   0.141E+02
RMM:   6     0.836819187866E+01   -0.34526E+03   -0.31347E+03   536   0.111E+02
RMM:   7    -0.218777247562E+03   -0.22715E+03   -0.19127E+03   536   0.772E+01
RMM:   8    -0.327622761750E+03   -0.10885E+03   -0.93551E+02   536   0.482E+01
RMM:   9    -0.385848083272E+03   -0.58225E+02   -0.49098E+02  1081   0.280E+01
RMM:  10    -0.389351267648E+03   -0.35032E+01   -0.33998E+01  1125   0.849E+00
RMM:  11    -0.389515518399E+03   -0.16425E+00   -0.18342E+00  1107   0.197E+00
RMM:  12    -0.389531098944E+03   -0.15581E-01   -0.17118E-01  1151   0.486E-01    0.359E+01
RMM:  13    -0.352866297554E+03    0.36665E+02   -0.14256E+02  1072   0.266E+01    0.137E+01
RMM:  14    -0.350703117485E+03    0.21632E+01   -0.95177E+00  1073   0.553E+00    0.888E+00
RMM:  15    -0.349185807662E+03    0.15173E+01   -0.25598E+00  1072   0.424E+00    0.152E+00
RMM:  16    -0.348987765072E+03    0.19804E+00   -0.72793E-01  1073   0.149E+00    0.765E-01
RMM:  17    -0.348894253352E+03    0.93512E-01   -0.27776E-01  1125   0.807E-01    0.920E-01
RMM:  18    -0.348873625880E+03    0.20627E-01   -0.92618E-02  1072   0.706E-01    0.216E-01
RMM:  19    -0.348892423859E+03   -0.18798E-01   -0.31229E-02  1072   0.348E-01    0.136E-01
RMM:  20    -0.348908500642E+03   -0.16077E-01   -0.69013E-03  1077   0.136E-01    0.958E-02
RMM:  21    -0.348918606586E+03   -0.10106E-01   -0.47940E-03  1072   0.986E-02    0.563E-02
RMM:  22    -0.348925666372E+03   -0.70598E-02   -0.22850E-03  1121   0.851E-02    0.552E-02
RMM:  23    -0.348930054752E+03   -0.43884E-02   -0.46859E-04  1072   0.412E-02    0.265E-02
RMM:  24    -0.348932199380E+03   -0.21446E-02   -0.37684E-04  1072   0.339E-02    0.136E-02
RMM:  25    -0.348932856763E+03   -0.65738E-03   -0.46286E-05  1029   0.113E-02    0.874E-03
RMM:  26    -0.348933417207E+03   -0.56044E-03   -0.35253E-05  1024   0.100E-02    0.748E-03
RMM:  27    -0.348933484429E+03   -0.67222E-04   -0.15158E-05  1013   0.731E-03    0.687E-03
RMM:  28    -0.348933554510E+03   -0.70081E-04   -0.28216E-06   777   0.336E-03    0.550E-03
RMM:  29    -0.348933560726E+03   -0.62152E-05   -0.30077E-06   832   0.350E-03    0.531E-03
RMM:  30    -0.348933586588E+03   -0.25862E-04   -0.43519E-07   688   0.214E-03    0.507E-03
RMM:  31    -0.348933583931E+03    0.26573E-05   -0.14333E-07   688   0.116E-03    0.503E-03
RMM:  32    -0.348933590602E+03   -0.66710E-05   -0.83622E-08   580   0.709E-04    0.503E-03
RMM:  33    -0.348933593222E+03   -0.26209E-05   -0.29847E-08   418   0.503E-04    0.502E-03
RMM:  34    -0.348933593658E+03   -0.43542E-06   -0.10803E-09   312   0.467E-04
   1 F= -.35024303E+03 E0= -.35024303E+03  d E =-.350243E+03
 curvature:   0.00 expect dE= 0.000E+00 dE for cont linesearch  0.000E+00
 trial: gam= 0.00000 g(F)=  0.107E+02 g(S)=  0.000E+00 ort = 0.000E+00 (trialstep = 0.100E+01)
 search vector abs. value=  0.107E+02
 bond charge predicted
       N       E                     dE             d eps       ncg     rms          rms(c)
RMM:   1    -0.356745103603E+03   -0.78115E+01   -0.22219E+03  1072   0.124E+02    0.846E+00
RMM:   2    -0.339484342313E+03    0.17261E+02   -0.26991E+01  1134   0.112E+01    0.103E+01
RMM:   3    -0.348196847676E+03   -0.87125E+01   -0.29013E+01  1072   0.113E+01    0.214E+01
RMM:   4    -0.337801953457E+03    0.10395E+02   -0.48253E+01  1072   0.149E+01    0.738E+00
RMM:   5    -0.338281256331E+03   -0.47930E+00   -0.18662E+01  1072   0.910E+00    0.865E+00
RMM:   6    -0.336920701519E+03    0.13606E+01   -0.37021E+00  1076   0.395E+00    0.397E+00
RMM:   7    -0.336821324919E+03    0.99377E-01   -0.49618E-01  1222   0.129E+00    0.270E+00
RMM:   8    -0.336712214425E+03    0.10911E+00   -0.10536E+00  1072   0.207E+00    0.755E-01
RMM:   9    -0.336764941359E+03   -0.52727E-01   -0.42671E-01  1081   0.117E+00    0.883E-01
RMM:  10    -0.336756422381E+03    0.85190E-02   -0.17388E-02  1072   0.317E-01    0.567E-01
RMM:  11    -0.336759432340E+03   -0.30100E-02   -0.54488E-02  1072   0.451E-01    0.127E-01
RMM:  12    -0.336769245215E+03   -0.98129E-02   -0.81214E-03  1101   0.153E-01    0.750E-02
RMM:  13    -0.336774734430E+03   -0.54892E-02   -0.11646E-03  1072   0.689E-02    0.946E-02
RMM:  14    -0.336776275978E+03   -0.15415E-02   -0.41678E-04  1072   0.429E-02    0.616E-02
RMM:  15    -0.336777856282E+03   -0.15803E-02   -0.25391E-03  1072   0.891E-02    0.567E-02
RMM:  16    -0.336778113421E+03   -0.25714E-03   -0.17616E-04  1072   0.303E-02    0.259E-02
RMM:  17    -0.336778320199E+03   -0.20678E-03   -0.38017E-04  1072   0.355E-02    0.207E-02
RMM:  18    -0.336778354730E+03   -0.34530E-04   -0.17675E-05  1070   0.103E-02    0.118E-02
RMM:  19    -0.336778394010E+03   -0.39280E-04   -0.28040E-05  1024   0.106E-02    0.544E-03
RMM:  20    -0.336778388683E+03    0.53268E-05   -0.55296E-07   688   0.186E-03    0.547E-03
RMM:  21    -0.336778395613E+03   -0.69301E-05   -0.14282E-07   619   0.930E-04    0.533E-03
RMM:  22    -0.336778396332E+03   -0.71905E-06   -0.16503E-07   640   0.931E-04
   2 F= -.33810749E+03 E0= -.33810749E+03  d E =0.121355E+02
 trial-energy change:   12.135539  1 .order   14.336640  -10.720530   39.393809
 step:   0.2653(harm=  0.2139)  dis= 0.02669  next Energy=  -351.706124 (dE=-0.146E+01)
 bond charge predicted
       N       E                     dE             d eps       ncg     rms          rms(c)
RMM:   1    -0.357165327843E+03   -0.20387E+02   -0.11609E+03  1072   0.898E+01    0.851E+00
RMM:   2    -0.351833393763E+03    0.53319E+01   -0.38382E+01  1072   0.133E+01    0.762E+00
RMM:   3    -0.350256606808E+03    0.15768E+01   -0.68858E+00  1072   0.571E+00    0.121E+00
RMM:   4    -0.350278245989E+03   -0.21639E-01   -0.40810E-01  1114   0.136E+00    0.785E-01
RMM:   5    -0.350266880877E+03    0.11365E-01   -0.73576E-02  1084   0.512E-01    0.326E-01
RMM:   6    -0.350276779514E+03   -0.98986E-02   -0.11200E-01  1076   0.596E-01    0.582E-01
RMM:   7    -0.350268894228E+03    0.78853E-02   -0.25380E-02  1072   0.339E-01    0.244E-01
RMM:   8    -0.350268235012E+03    0.65922E-03   -0.16639E-02  1101   0.230E-01    0.754E-02
RMM:   9    -0.350268729642E+03   -0.49463E-03   -0.11652E-03  1120   0.662E-02    0.601E-02
RMM:  10    -0.350268716693E+03    0.12948E-04   -0.44644E-04  1072   0.414E-02    0.144E-02
RMM:  11    -0.350268768583E+03   -0.51890E-04   -0.37196E-05  1126   0.113E-02    0.104E-02
RMM:  12    -0.350268815876E+03   -0.47293E-04   -0.11532E-04  1072   0.199E-02    0.226E-02
RMM:  13    -0.350268794472E+03    0.21405E-04   -0.24393E-05  1046   0.104E-02    0.106E-02
RMM:  14    -0.350268775043E+03    0.19429E-04   -0.20725E-05  1026   0.880E-03    0.536E-03
RMM:  15    -0.350268769692E+03    0.53509E-05   -0.10573E-06   688   0.249E-03    0.538E-03
RMM:  16    -0.350268771951E+03   -0.22588E-05   -0.57063E-07   688   0.190E-03    0.518E-03
RMM:  17    -0.350268770048E+03    0.19032E-05   -0.26189E-07   688   0.126E-03    0.508E-03
RMM:  18    -0.350268769666E+03    0.38225E-06   -0.19952E-07   681   0.101E-03
   3 F= -.35157926E+03 E0= -.35157926E+03  d E =-.133623E+01
 curvature:  -0.11 expect dE=-0.145E+00 dE for cont linesearch -0.371E-02
 ZBRENT: interpolating
 opt :   0.2510  next Energy=  -351.583633 (dE=-0.134E+01)
 bond charge predicted
       N       E                     dE             d eps       ncg     rms          rms(c)
RMM:   1    -0.350273843483E+03   -0.50734E-02   -0.42473E-01  1072   0.173E+00    0.132E-01
RMM:   2    -0.350272964813E+03    0.87867E-03   -0.56021E-03  1072   0.159E-01    0.600E-02
RMM:   3    -0.350272996171E+03   -0.31359E-04   -0.98805E-04  1075   0.643E-02    0.601E-02
RMM:   4    -0.350272997149E+03   -0.97783E-06   -0.60632E-04  1072   0.471E-02    0.200E-02
RMM:   5    -0.350273098887E+03   -0.10174E-03   -0.11142E-04  1072   0.216E-02    0.143E-02
RMM:   6    -0.350273160667E+03   -0.61780E-04   -0.38111E-05  1072   0.125E-02    0.534E-03
RMM:   7    -0.350273191337E+03   -0.30670E-04   -0.21000E-06   693   0.346E-03    0.553E-03
RMM:   8    -0.350273204384E+03   -0.13047E-04   -0.49880E-07   688   0.169E-03    0.518E-03
RMM:   9    -0.350273209231E+03   -0.48472E-05   -0.98953E-07   685   0.211E-03    0.519E-03
RMM:  10    -0.350273218109E+03   -0.88778E-05   -0.44645E-07   686   0.137E-03    0.540E-03
RMM:  11    -0.350273218631E+03   -0.52231E-06   -0.45004E-08   453   0.584E-04
   4 F= -.35158362E+03 E0= -.35158362E+03  d E =-.134059E+01
 curvature:  -0.13 expect dE=-0.144E+00 dE for cont linesearch -0.289E-10
 trial: gam= 0.10695 g(F)=  0.115E+01 g(S)=  0.000E+00 ort =-0.497E-04 (trialstep = 0.850E+00)
 search vector abs. value=  0.127E+01
 bond charge predicted
       N       E                     dE             d eps       ncg     rms          rms(c)
RMM:   1    -0.351048460324E+03   -0.77524E+00   -0.13984E+02  1072   0.315E+01    0.229E+00
RMM:   2    -0.350685977220E+03    0.36248E+00   -0.20674E+00  1072   0.300E+00    0.133E+00
RMM:   3    -0.350737205521E+03   -0.51228E-01   -0.34216E-01  1072   0.119E+00    0.175E+00
RMM:   4    -0.350685602799E+03    0.51603E-01   -0.47856E-01  1072   0.140E+00    0.465E-01
RMM:   5    -0.350696133154E+03   -0.10530E-01   -0.76691E-02  1121   0.495E-01    0.340E-01
RMM:   6    -0.350701047048E+03   -0.49139E-02   -0.48514E-02  1072   0.428E-01    0.229E-01
RMM:   7    -0.350700927011E+03    0.12004E-03   -0.19185E-03  1072   0.103E-01    0.126E-01
RMM:   8    -0.350701133048E+03   -0.20604E-03   -0.71324E-03  1072   0.156E-01    0.696E-02
RMM:   9    -0.350701194065E+03   -0.61017E-04   -0.35447E-04  1072   0.403E-02    0.347E-02
RMM:  10    -0.350701316340E+03   -0.12227E-03   -0.36490E-04  1120   0.349E-02    0.106E-02
RMM:  11    -0.350701363347E+03   -0.47008E-04   -0.18245E-05  1036   0.951E-03    0.149E-02
RMM:  12    -0.350701392984E+03   -0.29637E-04   -0.19156E-05  1032   0.895E-03    0.604E-03
RMM:  13    -0.350701414927E+03   -0.21943E-04   -0.38468E-06   832   0.380E-03    0.516E-03
RMM:  14    -0.350701426497E+03   -0.11571E-04   -0.10397E-06   688   0.237E-03    0.535E-03
RMM:  15    -0.350701428249E+03   -0.17521E-05   -0.74618E-07   688   0.228E-03    0.575E-03
RMM:  16    -0.350701433793E+03   -0.55439E-05   -0.13402E-07   688   0.110E-03    0.553E-03
RMM:  17    -0.350701438012E+03   -0.42183E-05   -0.11479E-07   688   0.111E-03    0.532E-03
RMM:  18    -0.350701437652E+03    0.35962E-06   -0.29148E-08   443   0.479E-04
   5 F= -.35200951E+03 E0= -.35200951E+03  d E =-.425895E+00
 trial-energy change:   -0.425895  1 .order   -0.435415   -0.974755    0.103924
 step:   0.7642(harm=  0.7683)  dis= 0.03214  next Energy=  -352.014780 (dE=-0.431E+00)
 bond charge predicted
       N       E                     dE             d eps       ncg     rms          rms(c)
RMM:   1    -0.350708910626E+03   -0.74726E-02   -0.14277E+00  1072   0.321E+00    0.204E-01
RMM:   2    -0.350706222286E+03    0.26883E-02   -0.10856E-02  1072   0.232E-01    0.575E-02
RMM:   3    -0.350706313739E+03   -0.91453E-04   -0.18869E-03  1111   0.794E-02    0.348E-02
RMM:   4    -0.350706396164E+03   -0.82425E-04   -0.25309E-04  1120   0.282E-02    0.149E-02
RMM:   5    -0.350706492274E+03   -0.96110E-04   -0.27341E-05  1024   0.110E-02    0.105E-02
RMM:   6    -0.350706461398E+03    0.30876E-04   -0.26666E-05  1030   0.901E-03    0.161E-02
RMM:   7    -0.350706448165E+03    0.13233E-04   -0.13668E-05  1074   0.757E-03    0.831E-03
RMM:   8    -0.350706439579E+03    0.85858E-05   -0.15918E-05   976   0.710E-03    0.540E-03
RMM:   9    -0.350706439603E+03   -0.24089E-07   -0.46430E-07   688   0.176E-03
   6 F= -.35201473E+03 E0= -.35201473E+03  d E =-.431112E+00
 curvature:  -0.42 expect dE=-0.485E+00 dE for cont linesearch -0.156E-07
 trial: gam= 1.09336 g(F)=  0.114E+01 g(S)=  0.000E+00 ort = 0.216E-03 (trialstep = 0.397E+00)
 search vector abs. value=  0.266E+01
 bond charge predicted
       N       E                     dE             d eps       ncg     rms          rms(c)
RMM:   1    -0.351217859356E+03   -0.51142E+00   -0.66469E+01  1072   0.221E+01    0.109E+00
RMM:   2    -0.351005191153E+03    0.21267E+00   -0.63939E-01  1072   0.181E+00    0.857E-01
RMM:   3    -0.351027256634E+03   -0.22065E-01   -0.30271E-01  1072   0.996E-01    0.108E+00
RMM:   4    -0.351050550607E+03   -0.23294E-01   -0.25096E-02  1072   0.374E-01    0.877E-01
RMM:   5    -0.351037599126E+03    0.12951E-01   -0.10781E-01  1072   0.595E-01    0.155E-01
RMM:   6    -0.351041977757E+03   -0.43786E-02   -0.82061E-03  1189   0.154E-01    0.438E-02
RMM:   7    -0.351045907320E+03   -0.39296E-02   -0.44160E-04  1072   0.412E-02    0.302E-02
RMM:   8    -0.351048408534E+03   -0.25012E-02   -0.34029E-04  1088   0.358E-02    0.191E-02
RMM:   9    -0.351049663743E+03   -0.12552E-02   -0.75262E-05  1078   0.136E-02    0.191E-02
RMM:  10    -0.351049851219E+03   -0.18748E-03   -0.15748E-04  1087   0.238E-02    0.141E-02
RMM:  11    -0.351049930995E+03   -0.79776E-04   -0.11231E-05  1017   0.771E-03    0.722E-03
RMM:  12    -0.351049971459E+03   -0.40464E-04   -0.16254E-05  1031   0.738E-03    0.611E-03
RMM:  13    -0.351049993864E+03   -0.22405E-04   -0.14749E-06   688   0.300E-03    0.498E-03
RMM:  14    -0.351049993377E+03    0.48656E-06   -0.13794E-06   688   0.254E-03
   7 F= -.35235976E+03 E0= -.35235976E+03  d E =-.345031E+00
 trial-energy change:   -0.345031  1 .order   -0.344916   -0.454183   -0.235649
 step:   0.8259(harm=  0.8259)  dis= 0.04083  next Energy=  -352.486699 (dE=-0.472E+00)
 bond charge predicted
       N       E                     dE             d eps       ncg     rms          rms(c)
RMM:   1    -0.351374147218E+03   -0.32415E+00   -0.77458E+01  1072   0.239E+01    0.120E+00
RMM:   2    -0.351165094073E+03    0.20905E+00   -0.57580E-01  1072   0.175E+00    0.192E-01
RMM:   3    -0.351172820888E+03   -0.77268E-02   -0.70821E-02  1112   0.431E-01    0.355E-01
RMM:   4    -0.351172771927E+03    0.48961E-04   -0.39701E-03  1072   0.136E-01    0.252E-01
RMM:   5    -0.351174082857E+03   -0.13109E-02   -0.17134E-02  1072   0.241E-01    0.562E-02
RMM:   6    -0.351174415810E+03   -0.33295E-03   -0.57843E-04  1072   0.562E-02    0.173E-02
RMM:   7    -0.351174486133E+03   -0.70323E-04   -0.55086E-05  1075   0.159E-02    0.926E-03
RMM:   8    -0.351174443498E+03    0.42635E-04   -0.32978E-05  1081   0.107E-02    0.912E-03
RMM:   9    -0.351174454751E+03   -0.11253E-04   -0.50397E-06   907   0.478E-03    0.651E-03
RMM:  10    -0.351174473120E+03   -0.18369E-04   -0.93395E-06   996   0.574E-03    0.497E-03
RMM:  11    -0.351174469336E+03    0.37844E-05   -0.25139E-06   754   0.341E-03    0.467E-03
RMM:  12    -0.351174464617E+03    0.47188E-05   -0.27577E-07   688   0.125E-03    0.451E-03
RMM:  13    -0.351174464183E+03    0.43363E-06   -0.91240E-08   541   0.701E-04
   8 F= -.35248580E+03 E0= -.35248580E+03  d E =-.471064E+00
 curvature:  -0.96 expect dE=-0.589E+00 dE for cont linesearch -0.296E-04
 trial: gam= 0.46739 g(F)=  0.613E+00 g(S)=  0.000E+00 ort =-0.905E-02 (trialstep = 0.483E+00)
 search vector abs. value=  0.119E+01
 bond charge predicted
       N       E                     dE             d eps       ncg     rms          rms(c)
RMM:   1    -0.351394060329E+03   -0.21960E+00   -0.36857E+01  1072   0.169E+01    0.878E-01
RMM:   2    -0.351421842754E+03   -0.27782E-01   -0.12930E+00  1072   0.238E+00    0.231E+00
RMM:   3    -0.351306585044E+03    0.11526E+00   -0.13643E+00  1072   0.222E+00    0.846E-01
RMM:   4    -0.351314709687E+03   -0.81246E-02   -0.15175E-01  1074   0.784E-01    0.839E-01
RMM:   5    -0.351321300244E+03   -0.65906E-02   -0.29469E-01  1072   0.104E+00    0.521E-01
RMM:   6    -0.351321373761E+03   -0.73517E-04   -0.99364E-03  1072   0.235E-01    0.360E-01
RMM:   7    -0.351321985201E+03   -0.61144E-03   -0.23806E-02  1072   0.296E-01    0.403E-02
RMM:   8    -0.351324905100E+03   -0.29199E-02   -0.62580E-04  1072   0.595E-02    0.206E-02
RMM:   9    -0.351325411502E+03   -0.50640E-03   -0.14454E-04  1092   0.204E-02    0.122E-02
RMM:  10    -0.351325571069E+03   -0.15957E-03   -0.18061E-04  1094   0.250E-02    0.208E-02
RMM:  11    -0.351325642464E+03   -0.71395E-04   -0.56798E-05  1072   0.150E-02    0.552E-03
RMM:  12    -0.351325674406E+03   -0.31942E-04   -0.16989E-05  1125   0.752E-03    0.612E-03
RMM:  13    -0.351325671143E+03    0.32631E-05   -0.59007E-06   864   0.456E-03    0.428E-03
RMM:  14    -0.351325680862E+03   -0.97191E-05   -0.75728E-07   688   0.193E-03    0.461E-03
RMM:  15    -0.351325680043E+03    0.81927E-06   -0.13705E-07   622   0.885E-04
   9 F= -.35263723E+03 E0= -.35263723E+03  d E =-.151438E+00
 trial-energy change:   -0.151438  1 .order   -0.151808   -0.294050   -0.009565
 step:   0.4993(harm=  0.4993)  dis= 0.01538  next Energy=  -352.637764 (dE=-0.152E+00)
 bond charge predicted
       N       E                     dE             d eps       ncg     rms          rms(c)
RMM:   1    -0.351325914162E+03   -0.23330E-03   -0.41604E-02  1072   0.567E-01    0.301E-02
RMM:   2    -0.351325824813E+03    0.89350E-04   -0.22656E-04  1072   0.390E-02    0.490E-03
RMM:   3    -0.351325841863E+03   -0.17050E-04   -0.13439E-05   952   0.622E-03    0.450E-03
RMM:   4    -0.351325841531E+03    0.33205E-06   -0.10533E-06   688   0.248E-03
  10 F= -.35263741E+03 E0= -.35263741E+03  d E =-.151611E+00
 curvature:  -0.49 expect dE=-0.164E+00 dE for cont linesearch -0.621E-07
 trial: gam= 0.54039 g(F)=  0.337E+00 g(S)=  0.000E+00 ort = 0.389E-03 (trialstep = 0.486E+00)
 search vector abs. value=  0.683E+00
 bond charge predicted
       N       E                     dE             d eps       ncg     rms          rms(c)
RMM:   1    -0.351463577605E+03   -0.13774E+00   -0.14088E+01  1072   0.104E+01    0.682E-01
RMM:   2    -0.351431425022E+03    0.32153E-01   -0.22692E-01  1072   0.100E+00    0.450E-01
RMM:   3    -0.351415652842E+03    0.15772E-01   -0.64217E-02  1072   0.456E-01    0.224E-01
RMM:   4    -0.351429723952E+03   -0.14071E-01   -0.72304E-03  1072   0.180E-01    0.178E-01
RMM:   5    -0.351434120169E+03   -0.43962E-02   -0.14059E-02  1072   0.226E-01    0.111E-01
RMM:   6    -0.351436041932E+03   -0.19218E-02   -0.33363E-03  1090   0.117E-01    0.409E-02
RMM:   7    -0.351437294940E+03   -0.12530E-02   -0.34825E-04  1078   0.371E-02    0.198E-02
RMM:   8    -0.351437939746E+03   -0.64481E-03   -0.43219E-04  1072   0.394E-02    0.311E-02
RMM:   9    -0.351438047650E+03   -0.10790E-03   -0.12244E-04  1072   0.231E-02    0.865E-03
RMM:  10    -0.351438127117E+03   -0.79467E-04   -0.17505E-05  1096   0.835E-03    0.408E-03
RMM:  11    -0.351438189092E+03   -0.61976E-04   -0.14653E-06   707   0.239E-03    0.396E-03
RMM:  12    -0.351438203891E+03   -0.14798E-04   -0.93192E-07   693   0.196E-03    0.415E-03
RMM:  13    -0.351438206486E+03   -0.25951E-05   -0.39254E-07   688   0.131E-03    0.405E-03
RMM:  14    -0.351438206533E+03   -0.47352E-07   -0.12163E-07   546   0.794E-04
  11 F= -.35275015E+03 E0= -.35275015E+03  d E =-.112739E+00
 trial-energy change:   -0.112739  1 .order   -0.112215   -0.163810   -0.060620
 step:   0.7591(harm=  0.7720)  dis= 0.01748  next Energy=  -352.767235 (dE=-0.130E+00)
 bond charge predicted
       N       E                     dE             d eps       ncg     rms          rms(c)
RMM:   1    -0.351462929307E+03   -0.24723E-01   -0.44342E+00  1072   0.584E+00    0.389E-01
RMM:   2    -0.351454697954E+03    0.82314E-02   -0.30553E-02  1072   0.439E-01    0.340E-02
RMM:   3    -0.351455002681E+03   -0.30473E-03   -0.25340E-03  1086   0.923E-02    0.316E-02
RMM:   4    -0.351455107707E+03   -0.10503E-03   -0.22031E-04  1093   0.312E-02    0.623E-03
RMM:   5    -0.351455170177E+03   -0.62470E-04   -0.16957E-05  1046   0.667E-03    0.758E-03
RMM:   6    -0.351455220368E+03   -0.50191E-04   -0.16582E-06   703   0.283E-03    0.810E-03
RMM:   7    -0.351455221363E+03   -0.99540E-06   -0.24605E-06   779   0.329E-03
  12 F= -.35276743E+03 E0= -.35276743E+03  d E =-.130027E+00
 curvature:  -0.78 expect dE=-0.166E+00 dE for cont linesearch -0.185E-05
 trial: gam= 0.62558 g(F)=  0.212E+00 g(S)=  0.000E+00 ort = 0.127E-02 (trialstep = 0.541E+00)
 search vector abs. value=  0.481E+00
 bond charge predicted
       N       E                     dE             d eps       ncg     rms          rms(c)
RMM:   1    -0.351522916461E+03   -0.67696E-01   -0.64712E+00  1072   0.730E+00    0.531E-01
RMM:   2    -0.351508322772E+03    0.14594E-01   -0.11244E-01  1072   0.807E-01    0.459E-01
RMM:   3    -0.351502857458E+03    0.54653E-02   -0.48661E-02  1072   0.429E-01    0.137E-01
RMM:   4    -0.351513207878E+03   -0.10350E-01   -0.46263E-03  1072   0.130E-01    0.100E-01
RMM:   5    -0.351516554755E+03   -0.33469E-02   -0.36503E-03  1072   0.107E-01    0.278E-02
RMM:   6    -0.351517222750E+03   -0.66799E-03   -0.83479E-04  1101   0.532E-02    0.613E-02
RMM:   7    -0.351517194177E+03    0.28572E-04   -0.11246E-03  1072   0.656E-02    0.234E-02
RMM:   8    -0.351517525340E+03   -0.33116E-03   -0.38387E-05  1072   0.143E-02    0.154E-02
RMM:   9    -0.351517837360E+03   -0.31202E-03   -0.11350E-04  1072   0.202E-02    0.102E-02
RMM:  10    -0.351517857602E+03   -0.20242E-04   -0.35161E-05  1072   0.119E-02    0.639E-03
RMM:  11    -0.351517847349E+03    0.10253E-04   -0.15796E-06   690   0.306E-03    0.464E-03
RMM:  12    -0.351517849205E+03   -0.18560E-05   -0.28691E-06   800   0.362E-03    0.406E-03
RMM:  13    -0.351517850969E+03   -0.17635E-05   -0.51165E-07   688   0.153E-03    0.391E-03
RMM:  14    -0.351517850993E+03   -0.24149E-07   -0.17175E-07   589   0.868E-04
  13 F= -.35282913E+03 E0= -.35282913E+03  d E =-.616949E-01
 trial-energy change:   -0.061695  1 .order   -0.061647   -0.115161   -0.008133
 step:   0.5820(harm=  0.5820)  dis= 0.01196  next Energy=  -352.829389 (dE=-0.620E-01)
 bond charge predicted
       N       E                     dE             d eps       ncg     rms          rms(c)
RMM:   1    -0.351518262060E+03   -0.41109E-03   -0.37388E-02  1072   0.555E-01    0.400E-02
RMM:   2    -0.351518236467E+03    0.25594E-04   -0.25659E-04  1072   0.430E-02    0.648E-03
RMM:   3    -0.351518246075E+03   -0.96088E-05   -0.21982E-05  1073   0.966E-03    0.484E-03
RMM:   4    -0.351518248533E+03   -0.24574E-05   -0.17894E-06   728   0.302E-03    0.376E-03
RMM:   5    -0.351518249158E+03   -0.62515E-06   -0.20055E-07   688   0.112E-03
  14 F= -.35282946E+03 E0= -.35282946E+03  d E =-.620271E-01
 curvature:  -0.66 expect dE=-0.692E-01 dE for cont linesearch -0.339E-07
 trial: gam= 0.50421 g(F)=  0.105E+00 g(S)=  0.000E+00 ort = 0.157E-03 (trialstep = 0.549E+00)
 search vector abs. value=  0.228E+00
 bond charge predicted
       N       E                     dE             d eps       ncg     rms          rms(c)
RMM:   1    -0.351546345902E+03   -0.28097E-01   -0.39749E+00  1072   0.577E+00    0.336E-01
RMM:   2    -0.351539497611E+03    0.68483E-02   -0.19066E-01  1085   0.840E-01    0.822E-01
RMM:   3    -0.351520032707E+03    0.19465E-01   -0.52341E-02  1072   0.479E-01    0.272E-01
RMM:   4    -0.351527698666E+03   -0.76660E-02   -0.19796E-02  1111   0.260E-01    0.444E-02
RMM:   5    -0.351533638784E+03   -0.59401E-02   -0.22230E-03  1164   0.877E-02    0.856E-02
RMM:   6    -0.351538966035E+03   -0.53273E-02   -0.73903E-03  1072   0.161E-01    0.124E-01
RMM:   7    -0.351539358868E+03   -0.39283E-03   -0.13615E-03  1072   0.758E-02    0.298E-02
RMM:   8    -0.351539830485E+03   -0.47162E-03   -0.61333E-04  1217   0.446E-02    0.242E-02
RMM:   9    -0.351539975352E+03   -0.14487E-03   -0.11322E-04  1072   0.204E-02    0.497E-03
RMM:  10    -0.351540029010E+03   -0.53658E-04   -0.64250E-06   931   0.487E-03    0.489E-03
RMM:  11    -0.351540057683E+03   -0.28673E-04   -0.98703E-06  1024   0.603E-03    0.587E-03
RMM:  12    -0.351540082535E+03   -0.24853E-04   -0.32502E-06   824   0.368E-03    0.410E-03
RMM:  13    -0.351540090139E+03   -0.76040E-05   -0.16412E-06   688   0.281E-03    0.426E-03
RMM:  14    -0.351540092558E+03   -0.24184E-05   -0.36258E-07   688   0.151E-03    0.384E-03
RMM:  15    -0.351540093440E+03   -0.88179E-06   -0.15272E-07   642   0.934E-04
  15 F= -.35285174E+03 E0= -.35285174E+03  d E =-.222842E-01
 trial-energy change:   -0.022284  1 .order   -0.022559   -0.057801    0.012682
 step:   0.4484(harm=  0.4503)  dis= 0.00789  next Energy=  -352.852909 (dE=-0.234E-01)
 bond charge predicted
       N       E                     dE             d eps       ncg     rms          rms(c)
RMM:   1    -0.351541564293E+03   -0.14717E-02   -0.13359E-01  1072   0.106E+00    0.614E-02
RMM:   2    -0.351541330962E+03    0.23333E-03   -0.77766E-04  1072   0.682E-02    0.809E-03
RMM:   3    -0.351541339115E+03   -0.81537E-05   -0.11516E-04  1084   0.174E-02    0.102E-02
RMM:   4    -0.351541351338E+03   -0.12222E-04   -0.96242E-06   991   0.664E-03    0.485E-03
RMM:   5    -0.351541349756E+03    0.15817E-05   -0.41631E-06   872   0.400E-03    0.393E-03
RMM:   6    -0.351541348760E+03    0.99595E-06   -0.54918E-07   688   0.179E-03
  16 F= -.35285291E+03 E0= -.35285291E+03  d E =-.234508E-01
 curvature:  -0.49 expect dE=-0.106E-01 dE for cont linesearch -0.166E-07
 trial: gam= 0.19679 g(F)=  0.218E-01 g(S)=  0.000E+00 ort = 0.882E-04 (trialstep = 0.529E+00)
 search vector abs. value=  0.307E-01
 bond charge predicted
       N       E                     dE             d eps       ncg     rms          rms(c)
RMM:   1    -0.351551808291E+03   -0.10459E-01   -0.86052E-01  1072   0.258E+00    0.151E-01
RMM:   2    -0.351546862823E+03    0.49455E-02   -0.73974E-03  1072   0.182E-01    0.112E-01
RMM:   3    -0.351548020745E+03   -0.11579E-02   -0.14064E-03  1072   0.726E-02    0.519E-02
RMM:   4    -0.351549679284E+03   -0.16585E-02   -0.28904E-03  1072   0.102E-01    0.141E-01
RMM:   5    -0.351549772560E+03   -0.93276E-04   -0.35699E-03  1072   0.112E-01    0.989E-03
RMM:   6    -0.351549865108E+03   -0.92548E-04   -0.43827E-04  1213   0.363E-02    0.419E-02
RMM:   7    -0.351549844729E+03    0.20379E-04   -0.23549E-04  1072   0.290E-02    0.877E-03
RMM:   8    -0.351549894881E+03   -0.50153E-04   -0.43208E-05  1217   0.120E-02    0.109E-02
RMM:   9    -0.351549906659E+03   -0.11778E-04   -0.24721E-06   765   0.349E-03    0.842E-03
RMM:  10    -0.351549931362E+03   -0.24703E-04   -0.11612E-05  1023   0.648E-03    0.386E-03
RMM:  11    -0.351549939367E+03   -0.80048E-05   -0.81858E-07   688   0.197E-03    0.396E-03
RMM:  12    -0.351549942959E+03   -0.35924E-05   -0.32720E-07   688   0.140E-03    0.377E-03
RMM:  13    -0.351549944206E+03   -0.12472E-05   -0.20701E-07   607   0.100E-03    0.379E-03
RMM:  14    -0.351549943855E+03    0.35119E-06   -0.27898E-08   446   0.528E-04
  17 F= -.35286151E+03 E0= -.35286151E+03  d E =-.860177E-02
 trial-energy change:   -0.008602  1 .order   -0.008545   -0.011546   -0.005544
 step:   0.9716(harm=  1.0176)  dis= 0.00613  next Energy=  -352.863865 (dE=-0.110E-01)
 bond charge predicted
       N       E                     dE             d eps       ncg     rms          rms(c)
RMM:   1    -0.351553853890E+03   -0.39097E-02   -0.60183E-01  1072   0.216E+00    0.126E-01
RMM:   2    -0.351552443424E+03    0.14105E-02   -0.32665E-03  1072   0.140E-01    0.171E-02
RMM:   3    -0.351552508273E+03   -0.64849E-04   -0.35275E-04  1072   0.293E-02    0.653E-03
RMM:   4    -0.351552524247E+03   -0.15975E-04   -0.14931E-05   930   0.723E-03    0.477E-03
RMM:   5    -0.351552528728E+03   -0.44813E-05   -0.56048E-06   872   0.399E-03    0.423E-03
RMM:   6    -0.351552530290E+03   -0.15619E-05   -0.88284E-07   691   0.200E-03    0.403E-03
RMM:   7    -0.351552530884E+03   -0.59398E-06   -0.29142E-07   637   0.104E-03
  18 F= -.35286411E+03 E0= -.35286411E+03  d E =-.111975E-01
 curvature:  -0.71 expect dE=-0.288E-01 dE for cont linesearch -0.261E-04
 trial: gam= 1.82426 g(F)=  0.407E-01 g(S)=  0.000E+00 ort = 0.106E-02 (trialstep = 0.129E+00)
 search vector abs. value=  0.147E+00
 bond charge predicted
       N       E                     dE             d eps       ncg     rms          rms(c)
RMM:   1    -0.351558354640E+03   -0.58243E-02   -0.39941E-01  1072   0.176E+00    0.976E-02
RMM:   2    -0.351556481491E+03    0.18731E-02   -0.30659E-03  1072   0.125E-01    0.755E-02
RMM:   3    -0.351556721756E+03   -0.24027E-03   -0.84353E-04  1072   0.556E-02    0.129E-01
RMM:   4    -0.351557224703E+03   -0.50295E-03   -0.45790E-03  1072   0.127E-01    0.658E-02
RMM:   5    -0.351557272432E+03   -0.47728E-04   -0.14822E-04  1081   0.255E-02    0.435E-02
RMM:   6    -0.351557276749E+03   -0.43171E-05   -0.33984E-04  1072   0.334E-02    0.124E-02
RMM:   7    -0.351557437920E+03   -0.16117E-03   -0.15143E-05  1072   0.880E-03    0.783E-03
RMM:   8    -0.351557509413E+03   -0.71493E-04   -0.27218E-05  1047   0.904E-03    0.540E-03
RMM:   9    -0.351557550123E+03   -0.40710E-04   -0.33672E-06   843   0.392E-03    0.432E-03
RMM:  10    -0.351557562251E+03   -0.12128E-04   -0.74148E-07   688   0.242E-03    0.404E-03
RMM:  11    -0.351557569339E+03   -0.70875E-05   -0.60533E-07   688   0.215E-03    0.415E-03
RMM:  12    -0.351557567705E+03    0.16342E-05   -0.38716E-07   688   0.151E-03    0.374E-03
RMM:  13    -0.351557568585E+03   -0.88059E-06   -0.91085E-08   688   0.919E-04
  19 F= -.35286920E+03 E0= -.35286920E+03  d E =-.508809E-02
 trial-energy change:   -0.005088  1 .order   -0.005047   -0.005506   -0.004588
 step:   0.4594(harm=  0.7749)  dis= 0.00710  next Energy=  -352.875751 (dE=-0.116E-01)
 bond charge predicted
       N       E                     dE             d eps       ncg     rms          rms(c)
RMM:   1    -0.351571497677E+03   -0.13930E-01   -0.26106E+00  1072   0.450E+00    0.253E-01
RMM:   2    -0.351565926337E+03    0.55713E-02   -0.15900E-02  1072   0.293E-01    0.607E-02
RMM:   3    -0.351566193821E+03   -0.26748E-03   -0.22056E-03  1081   0.729E-02    0.109E-02
RMM:   4    -0.351566227624E+03   -0.33803E-04   -0.11013E-04  1084   0.173E-02    0.103E-02
RMM:   5    -0.351566225715E+03    0.19093E-05   -0.25010E-05  1017   0.678E-03    0.730E-03
RMM:   6    -0.351566226809E+03   -0.10940E-05   -0.12580E-06   702   0.243E-03    0.596E-03
RMM:   7    -0.351566226584E+03    0.22539E-06   -0.23638E-06   745   0.307E-03
  20 F= -.35287798E+03 E0= -.35287798E+03  d E =-.138751E-01
 curvature:  -1.01 expect dE=-0.103E-01 dE for cont linesearch -0.203E-02
 ZBRENT: increasing intervall
 opt :   1.1199  next Energy=  -352.877116 (dE=-0.130E-01)
 bond charge predicted
       N       E                     dE             d eps       ncg     rms          rms(c)
RMM:   1    -0.351586137612E+03   -0.19911E-01   -0.10428E+01  1072   0.899E+00    0.514E-01
RMM:   2    -0.351563554299E+03    0.22583E-01   -0.65757E-02  1072   0.593E-01    0.119E-01
RMM:   3    -0.351564997363E+03   -0.14431E-02   -0.76162E-03  1114   0.128E-01    0.241E-02
RMM:   4    -0.351565021044E+03   -0.23682E-04   -0.22025E-04  1115   0.281E-02    0.124E-02
RMM:   5    -0.351565021885E+03   -0.84058E-06   -0.43582E-05  1018   0.962E-03    0.536E-03
RMM:   6    -0.351565025363E+03   -0.34778E-05   -0.15201E-06   713   0.274E-03    0.638E-03
RMM:   7    -0.351565045310E+03   -0.19947E-04   -0.49324E-06   905   0.424E-03    0.815E-03
RMM:   8    -0.351565050179E+03   -0.48692E-05   -0.94485E-06  1003   0.601E-03    0.375E-03
RMM:   9    -0.351565053937E+03   -0.37583E-05   -0.39765E-07   688   0.178E-03    0.364E-03
RMM:  10    -0.351565059429E+03   -0.54917E-05   -0.17713E-07   688   0.115E-03    0.381E-03
RMM:  11    -0.351565060056E+03   -0.62679E-06   -0.53615E-08   496   0.607E-04
  21 F= -.35287707E+03 E0= -.35287707E+03  d E =-.129660E-01
 curvature:   0.43 expect dE= 0.219E-01 dE for cont linesearch  0.126E-02
 ZBRENT: bracketing found
 ZBRENT: interpolating
 opt :   0.7587  next Energy=  -352.880544 (dE=-0.164E-01)
 bond charge predicted
       N       E                     dE             d eps       ncg     rms          rms(c)
RMM:   1    -0.351575326452E+03   -0.10267E-01   -0.31210E+00  1072   0.492E+00    0.277E-01
RMM:   2    -0.351568446760E+03    0.68797E-02   -0.18480E-02  1072   0.319E-01    0.770E-02
RMM:   3    -0.351568773900E+03   -0.32714E-03   -0.30550E-03  1073   0.866E-02    0.158E-02
RMM:   4    -0.351568795648E+03   -0.21748E-04   -0.11763E-04  1072   0.211E-02    0.595E-03
RMM:   5    -0.351568795199E+03    0.44906E-06   -0.26795E-05   927   0.607E-03    0.446E-03
RMM:   6    -0.351568798003E+03   -0.28037E-05   -0.11789E-06   720   0.226E-03    0.506E-03
RMM:   7    -0.351568796409E+03    0.15940E-05   -0.25875E-06   755   0.312E-03    0.423E-03
RMM:   8    -0.351568794804E+03    0.16051E-05   -0.68213E-07   688   0.198E-03    0.372E-03
RMM:   9    -0.351568794159E+03    0.64502E-06   -0.22390E-07   688   0.108E-03
  22 F= -.35288067E+03 E0= -.35288067E+03  d E =-.165594E-01
 curvature:  -0.88 expect dE=-0.138E-01 dE for cont linesearch -0.318E-06
 trial: gam= 0.48836 g(F)=  0.156E-01 g(S)=  0.000E+00 ort = 0.230E-03 (trialstep = 0.255E+00)
 search vector abs. value=  0.508E-01
 bond charge predicted
       N       E                     dE             d eps       ncg     rms          rms(c)
RMM:   1    -0.351572941906E+03   -0.41471E-02   -0.63113E-01  1072   0.222E+00    0.102E-01
RMM:   2    -0.351569767644E+03    0.31743E-02   -0.63523E-03  1072   0.177E-01    0.905E-02
RMM:   3    -0.351570142207E+03   -0.37456E-03   -0.26339E-03  1072   0.102E-01    0.982E-02
RMM:   4    -0.351571060273E+03   -0.91807E-03   -0.24348E-03  1072   0.948E-02    0.260E-02
RMM:   5    -0.351571475503E+03   -0.41523E-03   -0.12922E-04  1151   0.208E-02    0.378E-02
RMM:   6    -0.351571627557E+03   -0.15205E-03   -0.31283E-04  1072   0.329E-02    0.101E-02
RMM:   7    -0.351571737936E+03   -0.11038E-03   -0.40087E-05  1072   0.136E-02    0.106E-02
RMM:   8    -0.351571832082E+03   -0.94146E-04   -0.12687E-05  1086   0.675E-03    0.428E-03
RMM:   9    -0.351571861320E+03   -0.29238E-04   -0.66158E-06   957   0.458E-03    0.450E-03
RMM:  10    -0.351571866951E+03   -0.56300E-05   -0.27160E-06   756   0.342E-03    0.384E-03
RMM:  11    -0.351571871051E+03   -0.41002E-05   -0.21798E-07   688   0.121E-03    0.377E-03
RMM:  12    -0.351571871376E+03   -0.32480E-06   -0.28391E-07   688   0.118E-03
  23 F= -.35288363E+03 E0= -.35288363E+03  d E =-.296518E-02
 trial-energy change:   -0.002965  1 .order   -0.002925   -0.004016   -0.001833
 step:   0.4350(harm=  0.4692)  dis= 0.00394  next Energy=  -352.884294 (dE=-0.363E-02)
 bond charge predicted
       N       E                     dE             d eps       ncg     rms          rms(c)
RMM:   1    -0.351573245517E+03   -0.13745E-02   -0.31427E-01  1072   0.157E+00    0.717E-02
RMM:   2    -0.351572684358E+03    0.56116E-03   -0.18741E-03  1072   0.102E-01    0.989E-03
RMM:   3    -0.351572706495E+03   -0.22136E-04   -0.20623E-04  1120   0.207E-02    0.635E-03
RMM:   4    -0.351572717166E+03   -0.10671E-04   -0.86439E-06   936   0.600E-03    0.397E-03
RMM:   5    -0.351572722670E+03   -0.55045E-05   -0.79952E-07   700   0.175E-03    0.363E-03
RMM:   6    -0.351572724081E+03   -0.14103E-05   -0.18317E-07   601   0.896E-04    0.361E-03
RMM:   7    -0.351572724778E+03   -0.69727E-06   -0.67702E-08   446   0.619E-04
  24 F= -.35288441E+03 E0= -.35288441E+03  d E =-.373952E-02
 curvature:  -0.74 expect dE=-0.421E-02 dE for cont linesearch -0.150E-04
 trial: gam= 0.28265 g(F)=  0.571E-02 g(S)=  0.000E+00 ort = 0.101E-02 (trialstep = 0.291E+00)
 search vector abs. value=  0.103E-01
 bond charge predicted
       N       E                     dE             d eps       ncg     rms          rms(c)
RMM:   1    -0.351574388485E+03   -0.16644E-02   -0.18660E-01  1072   0.120E+00    0.669E-02
RMM:   2    -0.351573891475E+03    0.49701E-03   -0.74998E-03  1072   0.179E-01    0.162E-01
RMM:   3    -0.351573133601E+03    0.75787E-03   -0.28567E-03  1072   0.109E-01    0.372E-02
RMM:   4    -0.351574057080E+03   -0.92348E-03   -0.17106E-03  1072   0.807E-02    0.771E-02
RMM:   5    -0.351573976100E+03    0.80980E-04   -0.64187E-04  1072   0.521E-02    0.167E-02
RMM:   6    -0.351574066196E+03   -0.90096E-04   -0.21842E-04  1240   0.259E-02    0.161E-02
RMM:   7    -0.351574101813E+03   -0.35617E-04   -0.14444E-05  1024   0.738E-03    0.101E-02
RMM:   8    -0.351574103355E+03   -0.15424E-05   -0.66371E-06   930   0.495E-03    0.569E-03
RMM:   9    -0.351574122350E+03   -0.18995E-04   -0.73917E-07   688   0.193E-03    0.572E-03
RMM:  10    -0.351574141137E+03   -0.18787E-04   -0.50383E-06   880   0.420E-03    0.376E-03
RMM:  11    -0.351574136268E+03    0.48689E-05   -0.99470E-07   688   0.256E-03    0.384E-03
RMM:  12    -0.351574133462E+03    0.28062E-05   -0.15095E-07   688   0.114E-03    0.382E-03
RMM:  13    -0.351574133093E+03    0.36852E-06   -0.22468E-09   311   0.460E-04
  25 F= -.35288584E+03 E0= -.35288584E+03  d E =-.143476E-02
 trial-energy change:   -0.001435  1 .order   -0.001431   -0.001745   -0.001116
 step:   0.8077(harm=  0.8077)  dis= 0.00329  next Energy=  -352.886829 (dE=-0.242E-02)
 bond charge predicted
       N       E                     dE             d eps       ncg     rms          rms(c)
RMM:   1    -0.351575885448E+03   -0.17520E-02   -0.58817E-01  1072   0.213E+00    0.118E-01
RMM:   2    -0.351575001842E+03    0.88361E-03   -0.49486E-03  1074   0.155E-01    0.165E-02
RMM:   3    -0.351575052601E+03   -0.50759E-04   -0.60211E-04  1171   0.398E-02    0.150E-02
RMM:   4    -0.351575056436E+03   -0.38348E-05   -0.25070E-05  1072   0.111E-02    0.600E-03
RMM:   5    -0.351575061974E+03   -0.55382E-05   -0.62728E-06   899   0.481E-03    0.385E-03
RMM:   6    -0.351575062674E+03   -0.70039E-06   -0.39775E-07   688   0.160E-03
  26 F= -.35288682E+03 E0= -.35288682E+03  d E =-.241261E-02
 curvature:  -0.70 expect dE=-0.368E-02 dE for cont linesearch -0.343E-06
 trial: gam= 1.00726 g(F)=  0.529E-02 g(S)=  0.000E+00 ort =-0.713E-04 (trialstep = 0.261E+00)
 search vector abs. value=  0.156E-01
 bond charge predicted
       N       E                     dE             d eps       ncg     rms          rms(c)
RMM:   1    -0.351576484385E+03   -0.14224E-02   -0.11504E-01  1072   0.960E-01    0.492E-02
RMM:   2    -0.351576351126E+03    0.13326E-03   -0.95919E-04  1086   0.670E-02    0.329E-02
RMM:   3    -0.351576228234E+03    0.12289E-03   -0.52064E-04  1072   0.473E-02    0.503E-02
RMM:   4    -0.351576288494E+03   -0.60260E-04   -0.40600E-04  1072   0.444E-02    0.102E-02
RMM:   5    -0.351576334367E+03   -0.45873E-04   -0.23814E-05  1132   0.892E-03    0.172E-02
RMM:   6    -0.351576335526E+03   -0.11588E-05   -0.21319E-05  1069   0.895E-03    0.968E-03
RMM:   7    -0.351576333503E+03    0.20223E-05   -0.31047E-06   813   0.344E-03    0.638E-03
RMM:   8    -0.351576334025E+03   -0.52108E-06   -0.14520E-06   688   0.262E-03
  27 F= -.35288801E+03 E0= -.35288801E+03  d E =-.118708E-02
 ZBRENT: can't locate minimum, use default step
 trial-energy change:   -0.001187  1 .order   -0.001196   -0.001360   -0.001032
 step:   1.0434(harm=  1.0800)  dis= 0.00451  next Energy=  -352.889636 (dE=-0.282E-02)
 bond charge predicted
       N       E                     dE             d eps       ncg     rms          rms(c)
RMM:   1    -0.351579463790E+03   -0.31303E-02   -0.10350E+00  1072   0.288E+00    0.147E-01
RMM:   2    -0.351578004712E+03    0.14591E-02   -0.76152E-03  1073   0.195E-01    0.198E-02
RMM:   3    -0.351578138137E+03   -0.13342E-03   -0.90075E-04  1174   0.415E-02    0.142E-02
RMM:   4    -0.351578151262E+03   -0.13126E-04   -0.43147E-05  1104   0.127E-02    0.491E-03
RMM:   5    -0.351578159085E+03   -0.78222E-05   -0.62219E-06   854   0.448E-03    0.446E-03
RMM:   6    -0.351578162416E+03   -0.33318E-05   -0.28065E-06   793   0.346E-03    0.401E-03
RMM:   7    -0.351578165998E+03   -0.35814E-05   -0.42372E-07   688   0.160E-03    0.400E-03
RMM:   8    -0.351578167032E+03   -0.10347E-05   -0.43113E-07   688   0.149E-03    0.359E-03
RMM:   9    -0.351578168751E+03   -0.17184E-05   -0.62169E-07   688   0.174E-03    0.360E-03
RMM:  10    -0.351578172429E+03   -0.36782E-05   -0.11333E-07   688   0.951E-04    0.360E-03
RMM:  11    -0.351578173425E+03   -0.99607E-06   -0.99482E-08   563   0.780E-04
  28 F= -.35288959E+03 E0= -.35288959E+03  d E =-.277470E-02
 curvature:  -1.62 expect dE=-0.152E-01 dE for cont linesearch -0.104E-05
 trial: gam= 1.68730 g(F)=  0.942E-02 g(S)=  0.000E+00 ort = 0.100E-03 (trialstep = 0.120E+00)
 search vector abs. value=  0.543E-01
 bond charge predicted
       N       E                     dE             d eps       ncg     rms          rms(c)
RMM:   1    -0.351579344280E+03   -0.11719E-02   -0.79106E-02  1072   0.797E-01    0.468E-02
RMM:   2    -0.351579015817E+03    0.32846E-03   -0.13622E-03  1073   0.767E-02    0.833E-02
RMM:   3    -0.351579128427E+03   -0.11261E-03   -0.13501E-03  1072   0.702E-02    0.132E-02
RMM:   4    -0.351579133037E+03   -0.46103E-05   -0.31148E-05  1063   0.109E-02    0.114E-02
RMM:   5    -0.351579203780E+03   -0.70743E-04   -0.11207E-04  1072   0.201E-02    0.174E-02
RMM:   6    -0.351579223846E+03   -0.20066E-04   -0.24987E-05  1072   0.997E-03    0.617E-03
RMM:   7    -0.351579235709E+03   -0.11863E-04   -0.31762E-06   793   0.341E-03    0.413E-03
RMM:   8    -0.351579239749E+03   -0.40405E-05   -0.12456E-06   688   0.253E-03    0.354E-03
RMM:   9    -0.351579240827E+03   -0.10774E-05   -0.65600E-07   688   0.173E-03    0.369E-03
RMM:  10    -0.351579242297E+03   -0.14702E-05   -0.17577E-07   687   0.106E-03    0.357E-03
RMM:  11    -0.351579243335E+03   -0.10384E-05   -0.40826E-07   688   0.139E-03    0.362E-03
RMM:  12    -0.351579243250E+03    0.84945E-07   -0.14074E-08   377   0.531E-04
  29 F= -.35289065E+03 E0= -.35289065E+03  d E =-.105727E-02
 ZBRENT: can't locate minimum, use default step
 trial-energy change:   -0.001057  1 .order   -0.001062   -0.001153   -0.000971
 step:   0.4810(harm=  0.7632)  dis= 0.00477  next Energy=  -352.893254 (dE=-0.366E-02)
 bond charge predicted
       N       E                     dE             d eps       ncg     rms          rms(c)
RMM:   1    -0.351582276939E+03   -0.30336E-02   -0.71201E-01  1072   0.239E+00    0.140E-01
RMM:   2    -0.351581269908E+03    0.10070E-02   -0.44470E-03  1072   0.160E-01    0.217E-02
RMM:   3    -0.351581373940E+03   -0.10403E-03   -0.53579E-04  1160   0.337E-02    0.529E-03
RMM:   4    -0.351581375128E+03   -0.11883E-05   -0.14947E-05  1029   0.752E-03    0.633E-03
RMM:   5    -0.351581374053E+03    0.10755E-05   -0.32543E-06   816   0.327E-03    0.415E-03
RMM:   6    -0.351581375544E+03   -0.14906E-05   -0.67422E-07   688   0.186E-03    0.365E-03
RMM:   7    -0.351581375691E+03   -0.14723E-06   -0.16657E-07   640   0.976E-04
  30 F= -.35289275E+03 E0= -.35289275E+03  d E =-.315311E-02
 curvature:  -1.74 expect dE=-0.855E-02 dE for cont linesearch -0.418E-03
 ZBRENT: increasing intervall
 opt :   1.2025  next Energy=  -352.892126 (dE=-0.253E-02)
 bond charge predicted
       N       E                     dE             d eps       ncg     rms          rms(c)
RMM:   1    -0.351584496068E+03   -0.31205E-02   -0.28484E+00  1072   0.478E+00    0.279E-01
RMM:   2    -0.351580384342E+03    0.41117E-02   -0.16974E-02  1072   0.316E-01    0.746E-02
RMM:   3    -0.351580785642E+03   -0.40130E-03   -0.21289E-03  1160   0.672E-02    0.254E-02
RMM:   4    -0.351580792215E+03   -0.65731E-05   -0.10761E-04  1115   0.193E-02    0.786E-03
RMM:   5    -0.351580799121E+03   -0.69067E-05   -0.28469E-05  1147   0.920E-03    0.623E-03
RMM:   6    -0.351580797203E+03    0.19182E-05   -0.30348E-06   789   0.382E-03    0.393E-03
RMM:   7    -0.351580795030E+03    0.21735E-05   -0.81642E-07   688   0.214E-03    0.395E-03
RMM:   8    -0.351580793869E+03    0.11604E-05   -0.21044E-07   688   0.107E-03    0.369E-03
RMM:   9    -0.351580793036E+03    0.83313E-06   -0.44251E-07   688   0.141E-03
  31 F= -.35289210E+03 E0= -.35289210E+03  d E =-.250201E-02
 curvature:   2.59 expect dE= 0.714E-01 dE for cont linesearch  0.139E-02
 ZBRENT: bracketing found
 ZBRENT: interpolating
 opt :   0.7699  next Energy=  -352.893269 (dE=-0.367E-02)
 bond charge predicted
       N       E                     dE             d eps       ncg     rms          rms(c)
RMM:   1    -0.351583118873E+03   -0.23250E-02   -0.10228E+00  1072   0.286E+00    0.168E-01
RMM:   2    -0.351581725216E+03    0.13937E-02   -0.63408E-03  1072   0.191E-01    0.310E-02
RMM:   3    -0.351581906346E+03   -0.18113E-03   -0.80252E-04  1160   0.416E-02    0.574E-03
RMM:   4    -0.351581915023E+03   -0.86775E-05   -0.15080E-05  1011   0.762E-03    0.382E-03
RMM:   5    -0.351581915634E+03   -0.61099E-06   -0.19815E-06   743   0.227E-03
  32 F= -.35289326E+03 E0= -.35289326E+03  d E =-.366488E-02
 curvature:  -0.97 expect dE=-0.942E-02 dE for cont linesearch -0.896E-08
 trial: gam= 1.07994 g(F)=  0.972E-02 g(S)=  0.000E+00 ort = 0.224E-04 (trialstep = 0.186E+00)
 search vector abs. value=  0.731E-01
 bond charge predicted
       N       E                     dE             d eps       ncg     rms          rms(c)
RMM:   1    -0.351583715669E+03   -0.18006E-02   -0.15562E-01  1072   0.113E+00    0.672E-02
RMM:   2    -0.351583314871E+03    0.40080E-03   -0.16392E-03  1077   0.887E-02    0.490E-02
RMM:   3    -0.351583344054E+03   -0.29182E-04   -0.13947E-03  1072   0.710E-02    0.464E-02
RMM:   4    -0.351583341437E+03    0.26170E-05   -0.51231E-04  1072   0.441E-02    0.152E-02
RMM:   5    -0.351583409264E+03   -0.67828E-04   -0.28327E-05  1072   0.117E-02    0.110E-02
RMM:   6    -0.351583504817E+03   -0.95553E-04   -0.61618E-05  1072   0.148E-02    0.105E-02
RMM:   7    -0.351583531277E+03   -0.26460E-04   -0.66297E-06   930   0.539E-03    0.583E-03
RMM:   8    -0.351583540850E+03   -0.95730E-05   -0.21441E-06   733   0.312E-03    0.408E-03
RMM:   9    -0.351583550056E+03   -0.92057E-05   -0.30431E-06   813   0.367E-03    0.407E-03
RMM:  10    -0.351583553272E+03   -0.32159E-05   -0.26884E-07   688   0.143E-03    0.380E-03
RMM:  11    -0.351583556762E+03   -0.34903E-05   -0.10072E-07   555   0.776E-04    0.366E-03
RMM:  12    -0.351583556778E+03   -0.16014E-07   -0.11156E-07   676   0.780E-04
  33 F= -.35289493E+03 E0= -.35289493E+03  d E =-.166639E-02
 ZBRENT: can't locate minimum, use default step
 trial-energy change:   -0.001666  1 .order   -0.001671   -0.001810   -0.001532
 step:   0.7433(harm=  1.2101)  dis= 0.01007  next Energy=  -352.899154 (dE=-0.589E-02)
 bond charge predicted
       N       E                     dE             d eps       ncg     rms          rms(c)
RMM:   1    -0.351588268390E+03   -0.47116E-02   -0.13998E+00  1072   0.338E+00    0.202E-01
RMM:   2    -0.351586617519E+03    0.16509E-02   -0.94976E-03  1072   0.232E-01    0.242E-02
RMM:   3    -0.351586802366E+03   -0.18485E-03   -0.11356E-03  1171   0.482E-02    0.101E-02
RMM:   4    -0.351586820734E+03   -0.18368E-04   -0.51895E-05  1075   0.139E-02    0.692E-03
RMM:   5    -0.351586829504E+03   -0.87701E-05   -0.37628E-06   799   0.342E-03    0.535E-03
RMM:   6    -0.351586833996E+03   -0.44926E-05   -0.12907E-06   688   0.249E-03    0.375E-03
RMM:   7    -0.351586834054E+03   -0.57449E-07   -0.20561E-07   687   0.105E-03
  34 F= -.35289828E+03 E0= -.35289828E+03  d E =-.502178E-02
 curvature:  -3.60 expect dE=-0.312E-01 dE for cont linesearch -0.718E-03
 ZBRENT: increasing intervall
 opt :   1.8584  next Energy=  -352.897606 (dE=-0.435E-02)
 bond charge predicted
       N       E                     dE             d eps       ncg     rms          rms(c)
RMM:   1    -0.351591908992E+03   -0.50750E-02   -0.55889E+00  1072   0.676E+00    0.405E-01
RMM:   2    -0.351584916265E+03    0.69927E-02   -0.37932E-02  1072   0.466E-01    0.768E-02
RMM:   3    -0.351585769060E+03   -0.85280E-03   -0.49827E-03  1168   0.100E-01    0.159E-02
RMM:   4    -0.351585788467E+03   -0.19407E-04   -0.10421E-04  1136   0.187E-02    0.797E-03
RMM:   5    -0.351585796883E+03   -0.84160E-05   -0.16818E-05   918   0.602E-03    0.480E-03
RMM:   6    -0.351585801061E+03   -0.41789E-05   -0.13984E-06   707   0.257E-03    0.404E-03
RMM:   7    -0.351585804727E+03   -0.36653E-05   -0.62239E-07   688   0.167E-03    0.369E-03
RMM:   8    -0.351585807306E+03   -0.25789E-05   -0.15373E-07   687   0.104E-03    0.362E-03
RMM:   9    -0.351585809029E+03   -0.17234E-05   -0.35528E-08   400   0.528E-04    0.362E-03
RMM:  10    -0.351585810197E+03   -0.11682E-05   -0.11620E-08   342   0.526E-04    0.362E-03
RMM:  11    -0.351585810082E+03    0.11546E-06   -0.12890E-09   308   0.502E-04
  35 F= -.35289742E+03 E0= -.35289742E+03  d E =-.416374E-02
 curvature:   3.38 expect dE= 0.160E+00 dE for cont linesearch  0.138E-02
 ZBRENT: bracketing found
 ZBRENT: interpolating
 opt :   1.2026  next Energy=  -352.899159 (dE=-0.590E-02)
 bond charge predicted
       N       E                     dE             d eps       ncg     rms          rms(c)
RMM:   1    -0.351589407067E+03   -0.35969E-02   -0.19292E+00  1072   0.397E+00    0.237E-01
RMM:   2    -0.351587357814E+03    0.20493E-02   -0.13108E-02  1072   0.272E-01    0.281E-02
RMM:   3    -0.351587665380E+03   -0.30757E-03   -0.15786E-03  1173   0.567E-02    0.933E-03
RMM:   4    -0.351587667628E+03   -0.22477E-05   -0.35860E-05  1113   0.116E-02    0.525E-03
RMM:   5    -0.351587665776E+03    0.18520E-05   -0.40667E-06   777   0.303E-03    0.445E-03
RMM:   6    -0.351587669168E+03   -0.33920E-05   -0.36594E-07   688   0.133E-03    0.386E-03
RMM:   7    -0.351587668197E+03    0.97074E-06   -0.27500E-07   688   0.106E-03
  36 F= -.35289918E+03 E0= -.35289918E+03  d E =-.592280E-02
 curvature:  -2.15 expect dE=-0.401E-01 dE for cont linesearch -0.448E-06
 trial: gam= 1.87633 g(F)=  0.186E-01 g(S)=  0.000E+00 ort = 0.123E-03 (trialstep = 0.103E+00)
 search vector abs. value=  0.276E+00
 bond charge predicted
       N       E                     dE             d eps       ncg     rms          rms(c)
RMM:   1    -0.351589652424E+03   -0.19833E-02   -0.22975E-01  1072   0.135E+00    0.787E-02
RMM:   2    -0.351589181782E+03    0.47064E-03   -0.24740E-03  1079   0.113E-01    0.831E-02
RMM:   3    -0.351589079941E+03    0.10184E-03   -0.62370E-04  1079   0.463E-02    0.299E-02
RMM:   4    -0.351589309005E+03   -0.22906E-03   -0.53378E-04  1072   0.434E-02    0.271E-02
RMM:   5    -0.351589401444E+03   -0.92439E-04   -0.75317E-05  1074   0.184E-02    0.124E-02
RMM:   6    -0.351589450068E+03   -0.48623E-04   -0.24903E-05  1138   0.910E-03    0.774E-03
RMM:   7    -0.351589457087E+03   -0.70194E-05   -0.63185E-06   914   0.538E-03    0.476E-03
RMM:   8    -0.351589457794E+03   -0.70662E-06   -0.93118E-07   688   0.241E-03
  37 F= -.35290107E+03 E0= -.35290107E+03  d E =-.188960E-02
 ZBRENT: can't locate minimum, use default step
 trial-energy change:   -0.001890  1 .order   -0.001867   -0.001941   -0.001792
 step:   0.4116(harm=  1.3416)  dis= 0.01108  next Energy=  -352.911837 (dE=-0.127E-01)
 bond charge predicted
       N       E                     dE             d eps       ncg     rms          rms(c)
RMM:   1    -0.351595979264E+03   -0.65222E-02   -0.20674E+00  1072   0.404E+00    0.236E-01
RMM:   2    -0.351593651588E+03    0.23277E-02   -0.14507E-02  1072   0.283E-01    0.389E-02
RMM:   3    -0.351593967607E+03   -0.31602E-03   -0.18870E-03  1171   0.651E-02    0.128E-02
RMM:   4    -0.351593945019E+03    0.22588E-04   -0.35862E-05  1086   0.119E-02    0.799E-03
RMM:   5    -0.351593940855E+03    0.41637E-05   -0.84709E-06   925   0.482E-03    0.531E-03
RMM:   6    -0.351593940314E+03    0.54101E-06   -0.58304E-07   688   0.208E-03
  38 F= -.35290586E+03 E0= -.35290586E+03  d E =-.667606E-02
 curvature:  -4.29 expect dE=-0.523E-01 dE for cont linesearch -0.277E-02
 ZBRENT: increasing intervall
 opt :   1.0291  next Energy=  -352.911592 (dE=-0.124E-01)
 bond charge predicted
       N       E                     dE             d eps       ncg     rms          rms(c)
RMM:   1    -0.351608410811E+03   -0.14470E-01   -0.82641E+00  1072   0.807E+00    0.471E-01
RMM:   2    -0.351598023793E+03    0.10387E-01   -0.58084E-02  1072   0.568E-01    0.888E-02
RMM:   3    -0.351599341705E+03   -0.13179E-02   -0.68956E-03  1171   0.120E-01    0.135E-02
RMM:   4    -0.351599354744E+03   -0.13039E-04   -0.12522E-04  1124   0.217E-02    0.600E-03
RMM:   5    -0.351599368757E+03   -0.14013E-04   -0.17394E-05   965   0.604E-03    0.494E-03
RMM:   6    -0.351599367755E+03    0.10024E-05   -0.85652E-07   701   0.206E-03    0.382E-03
RMM:   7    -0.351599366276E+03    0.14785E-05   -0.23514E-06   755   0.299E-03    0.429E-03
RMM:   8    -0.351599367037E+03   -0.76035E-06   -0.41225E-07   688   0.146E-03
  39 F= -.35291191E+03 E0= -.35291191E+03  d E =-.127264E-01
 curvature:  -8.89 expect dE=-0.149E+00 dE for cont linesearch -0.119E-02
 ZBRENT: increasing intervall
 opt :   2.2639  next Energy=  -352.910443 (dE=-0.113E-01)
 bond charge predicted
       N       E                     dE             d eps       ncg     rms          rms(c)
RMM:   1    -0.351641552800E+03   -0.42187E-01   -0.33028E+01  1072   0.161E+01    0.940E-01
RMM:   2    -0.351591452173E+03    0.50101E-01   -0.23414E-01  1072   0.115E+00    0.211E-01
RMM:   3    -0.351597158792E+03   -0.57066E-02   -0.27209E-02  1172   0.236E-01    0.354E-02
RMM:   4    -0.351597197495E+03   -0.38703E-04   -0.59748E-04  1108   0.480E-02    0.151E-02
RMM:   5    -0.351597272852E+03   -0.75357E-04   -0.10056E-04  1161   0.164E-02    0.661E-03
RMM:   6    -0.351597352124E+03   -0.79272E-04   -0.69835E-06   970   0.535E-03    0.781E-03
RMM:   7    -0.351597394082E+03   -0.41957E-04   -0.73628E-06   940   0.535E-03    0.829E-03
RMM:   8    -0.351597420074E+03   -0.25992E-04   -0.14563E-05  1057   0.727E-03    0.445E-03
RMM:   9    -0.351597427958E+03   -0.78840E-05   -0.71246E-07   688   0.240E-03    0.377E-03
RMM:  10    -0.351597443548E+03   -0.15591E-04   -0.22381E-06   738   0.349E-03    0.418E-03
RMM:  11    -0.351597435692E+03    0.78568E-05   -0.29588E-07   688   0.169E-03    0.430E-03
RMM:  12    -0.351597440866E+03   -0.51745E-05   -0.67998E-08   688   0.920E-04    0.421E-03
RMM:  13    -0.351597441841E+03   -0.97507E-06   -0.77855E-08   592   0.793E-04
  40 F= -.35291128E+03 E0= -.35291128E+03  d E =-.120996E-01
 curvature:  10.95 expect dE= 0.735E+00 dE for cont linesearch  0.203E-02
 ZBRENT: bracketing found
 ZBRENT: interpolating
 opt :   1.5962  next Energy=  -352.913634 (dE=-0.145E-01)
 bond charge predicted
       N       E                     dE             d eps       ncg     rms          rms(c)
RMM:   1    -0.351607994952E+03   -0.10554E-01   -0.95991E+00  1072   0.870E+00    0.518E-01
RMM:   2    -0.351599130194E+03    0.88648E-02   -0.75260E-02  1072   0.632E-01    0.559E-02
RMM:   3    -0.351600452096E+03   -0.13219E-02   -0.72407E-03  1182   0.128E-01    0.390E-02
RMM:   4    -0.351600499611E+03   -0.47515E-04   -0.21904E-04  1088   0.297E-02    0.150E-02
RMM:   5    -0.351600501807E+03   -0.21955E-05   -0.42645E-05  1180   0.114E-02    0.603E-03
RMM:   6    -0.351600507551E+03   -0.57438E-05   -0.13244E-06   707   0.269E-03    0.527E-03
RMM:   7    -0.351600509951E+03   -0.24004E-05   -0.15316E-06   688   0.280E-03    0.397E-03
RMM:   8    -0.351600512250E+03   -0.22990E-05   -0.70895E-07   688   0.180E-03    0.360E-03
RMM:   9    -0.351600512340E+03   -0.89942E-07   -0.14696E-07   637   0.866E-04
  41 F= -.35291364E+03 E0= -.35291364E+03  d E =-.144606E-01
 curvature:  -9.30 expect dE=-0.316E+00 dE for cont linesearch -0.735E-07
 trial: gam= 1.83142 g(F)=  0.340E-01 g(S)=  0.000E+00 ort = 0.468E-04 (trialstep = 0.115E+00)
 search vector abs. value=  0.961E+00
 bond charge predicted
       N       E                     dE             d eps       ncg     rms          rms(c)
RMM:   1    -0.351604748680E+03   -0.42364E-02   -0.10516E+00  1072   0.286E+00    0.158E-01
RMM:   2    -0.351601640982E+03    0.31077E-02   -0.84533E-03  1073   0.207E-01    0.953E-02
RMM:   3    -0.351603077082E+03   -0.14361E-02   -0.82761E-03  1072   0.172E-01    0.158E-01
RMM:   4    -0.351603355148E+03   -0.27807E-03   -0.14482E-03  1074   0.782E-02    0.597E-02
RMM:   5    -0.351603597648E+03   -0.24250E-03   -0.91465E-04  1100   0.561E-02    0.156E-02
RMM:   6    -0.351603642132E+03   -0.44485E-04   -0.38063E-05  1072   0.141E-02    0.717E-03
RMM:   7    -0.351603702167E+03   -0.60034E-04   -0.80234E-06   948   0.578E-03    0.378E-03
RMM:   8    -0.351603732876E+03   -0.30709E-04   -0.85918E-07   688   0.212E-03    0.397E-03
RMM:   9    -0.351603742455E+03   -0.95793E-05   -0.25905E-06   766   0.325E-03    0.545E-03
RMM:  10    -0.351603747995E+03   -0.55405E-05   -0.29977E-07   688   0.124E-03    0.482E-03
RMM:  11    -0.351603745710E+03    0.22856E-05   -0.14093E-06   688   0.259E-03    0.359E-03
RMM:  12    -0.351603748043E+03   -0.23332E-05   -0.41051E-07   683   0.135E-03    0.365E-03
RMM:  13    -0.351603749592E+03   -0.15486E-05   -0.33644E-08   415   0.556E-04    0.356E-03
RMM:  14    -0.351603750192E+03   -0.60063E-06   -0.18824E-07   688   0.990E-04
  42 F= -.35291700E+03 E0= -.35291700E+03  d E =-.335844E-02
 trial-energy change:   -0.003358  1 .order   -0.003329   -0.003931   -0.002728
 step:   0.3048(harm=  0.3774)  dis= 0.01507  next Energy=  -352.919367 (dE=-0.572E-02)
 bond charge predicted
       N       E                     dE             d eps       ncg     rms          rms(c)
RMM:   1    -0.351609254881E+03   -0.55053E-02   -0.28259E+00  1072   0.470E+00    0.259E-01
RMM:   2    -0.351606067757E+03    0.31871E-02   -0.20436E-02  1073   0.329E-01    0.353E-02
RMM:   3    -0.351606467620E+03   -0.39986E-03   -0.24480E-03  1173   0.713E-02    0.178E-02
RMM:   4    -0.351606464383E+03    0.32369E-05   -0.53397E-05  1105   0.141E-02    0.116E-02
RMM:   5    -0.351606462351E+03    0.20322E-05   -0.17743E-05  1059   0.766E-03    0.841E-03
RMM:   6    -0.351606461399E+03    0.95191E-06   -0.13268E-06   689   0.281E-03
  43 F= -.35291992E+03 E0= -.35291992E+03  d E =-.627270E-02
 curvature:  -4.92 expect dE=-0.261E-01 dE for cont linesearch -0.210E-03
 ZBRENT: extrapolating
 opt :   0.3754  next Energy=  -352.920142 (dE=-0.650E-02)
 bond charge predicted
       N       E                     dE             d eps       ncg     rms          rms(c)
RMM:   1    -0.351606980155E+03   -0.51780E-03   -0.39129E-01  1072   0.175E+00    0.971E-02
RMM:   2    -0.351606569257E+03    0.41090E-03   -0.28200E-03  1072   0.123E-01    0.178E-02
RMM:   3    -0.351606623202E+03   -0.53945E-04   -0.34199E-04  1174   0.261E-02    0.451E-03
RMM:   4    -0.351606625805E+03   -0.26026E-05   -0.60945E-06   857   0.474E-03    0.441E-03
RMM:   5    -0.351606627539E+03   -0.17346E-05   -0.98439E-07   707   0.165E-03    0.387E-03
RMM:   6    -0.351606628682E+03   -0.11425E-05   -0.18506E-07   584   0.835E-04    0.362E-03
RMM:   7    -0.351606629478E+03   -0.79662E-06   -0.66558E-08   482   0.604E-04
  44 F= -.35292016E+03 E0= -.35292016E+03  d E =-.651795E-02
 curvature:  -5.29 expect dE=-0.319E-01 dE for cont linesearch -0.107E-06
 trial: gam= 0.16196 g(F)=  0.604E-02 g(S)=  0.000E+00 ort =-0.139E-03 (trialstep = 0.167E+00)
 search vector abs. value=  0.312E-01
 bond charge predicted
       N       E                     dE             d eps       ncg     rms          rms(c)
RMM:   1    -0.351607624013E+03   -0.99533E-03   -0.15381E-01  1072   0.107E+00    0.599E-02
RMM:   2    -0.351607230715E+03    0.39330E-03   -0.37000E-03  1078   0.126E-01    0.101E-01
RMM:   3    -0.351607423563E+03   -0.19285E-03   -0.34478E-04  1072   0.403E-02    0.620E-02
RMM:   4    -0.351607411413E+03    0.12149E-04   -0.41722E-04  1080   0.384E-02    0.272E-02
RMM:   5    -0.351607414197E+03   -0.27841E-05   -0.17327E-05  1072   0.109E-02    0.134E-02
RMM:   6    -0.351607403673E+03    0.10525E-04   -0.34315E-05  1071   0.104E-02    0.493E-03
RMM:   7    -0.351607428383E+03   -0.24711E-04   -0.68876E-06   977   0.536E-03    0.575E-03
RMM:   8    -0.351607434343E+03   -0.59601E-05   -0.68417E-07   688   0.234E-03    0.449E-03
RMM:   9    -0.351607446789E+03   -0.12445E-04   -0.21190E-06   736   0.305E-03    0.363E-03
RMM:  10    -0.351607449574E+03   -0.27848E-05   -0.34486E-07   688   0.146E-03    0.364E-03
RMM:  11    -0.351607448086E+03    0.14878E-05   -0.79964E-08   589   0.716E-04    0.356E-03
RMM:  12    -0.351607448483E+03   -0.39704E-06   -0.60827E-08   524   0.625E-04
  45 F= -.35292104E+03 E0= -.35292104E+03  d E =-.882603E-03
 trial-energy change:   -0.000883  1 .order   -0.000866   -0.001007   -0.000724
 step:   0.3983(harm=  0.5960)  dis= 0.00275  next Energy=  -352.921587 (dE=-0.143E-02)
 bond charge predicted
       N       E                     dE             d eps       ncg     rms          rms(c)
RMM:   1    -0.351608459774E+03   -0.10117E-02   -0.29229E-01  1072   0.148E+00    0.827E-02
RMM:   2    -0.351608074900E+03    0.38487E-03   -0.23863E-03  1075   0.108E-01    0.129E-02
RMM:   3    -0.351608111827E+03   -0.36927E-04   -0.30528E-04  1186   0.273E-02    0.910E-03
RMM:   4    -0.351608107752E+03    0.40746E-05   -0.86587E-06   932   0.627E-03    0.443E-03
RMM:   5    -0.351608102514E+03    0.52382E-05   -0.14557E-06   691   0.278E-03    0.363E-03
RMM:   6    -0.351608103761E+03   -0.12465E-05   -0.32890E-07   688   0.134E-03    0.353E-03
RMM:   7    -0.351608104127E+03   -0.36592E-06   -0.75916E-08   497   0.701E-04
  46 F= -.35292179E+03 E0= -.35292179E+03  d E =-.162718E-02
 curvature:  -1.22 expect dE=-0.224E-02 dE for cont linesearch -0.156E-03
 ZBRENT: increasing intervall
 opt :   0.8599  next Energy=  -352.921640 (dE=-0.148E-02)
 bond charge predicted
       N       E                     dE             d eps       ncg     rms          rms(c)
RMM:   1    -0.351609258520E+03   -0.11548E-02   -0.11700E+00  1072   0.296E+00    0.165E-01
RMM:   2    -0.351607639246E+03    0.16193E-02   -0.94202E-03  1075   0.215E-01    0.286E-02
RMM:   3    -0.351607789055E+03   -0.14981E-03   -0.10776E-03  1186   0.487E-02    0.541E-03
RMM:   4    -0.351607784806E+03    0.42484E-05   -0.17295E-05  1025   0.832E-03    0.439E-03
RMM:   5    -0.351607785342E+03   -0.53615E-06   -0.17780E-06   721   0.230E-03
  47 F= -.35292165E+03 E0= -.35292165E+03  d E =-.149064E-02
 curvature:   1.15 expect dE= 0.786E-02 dE for cont linesearch  0.296E-03
 ZBRENT: bracketing found
 ZBRENT: interpolating
 opt :   0.5895  next Energy=  -352.921980 (dE=-0.182E-02)
 bond charge predicted
       N       E                     dE             d eps       ncg     rms          rms(c)
RMM:   1    -0.351608764086E+03   -0.97928E-03   -0.40107E-01  1072   0.173E+00    0.982E-02
RMM:   2    -0.351608180319E+03    0.58377E-03   -0.32964E-03  1074   0.127E-01    0.170E-02
RMM:   3    -0.351608236712E+03   -0.56393E-04   -0.37044E-04  1189   0.282E-02    0.409E-03
RMM:   4    -0.351608240591E+03   -0.38786E-05   -0.51090E-06   846   0.470E-03    0.355E-03
RMM:   5    -0.351608240419E+03    0.17135E-06   -0.61035E-07   692   0.151E-03
  48 F= -.35292200E+03 E0= -.35292200E+03  d E =-.183826E-02
 curvature:  -0.75 expect dE=-0.194E-02 dE for cont linesearch -0.114E-06
 trial: gam= 0.42078 g(F)=  0.260E-02 g(S)=  0.000E+00 ort = 0.690E-04 (trialstep = 0.252E+00)
 search vector abs. value=  0.818E-02
 bond charge predicted
       N       E                     dE             d eps       ncg     rms          rms(c)
RMM:   1    -0.351608956028E+03   -0.71544E-03   -0.10515E-01  1072   0.891E-01    0.387E-02
RMM:   2    -0.351608354289E+03    0.60174E-03   -0.12350E-03  1092   0.718E-02    0.355E-02
RMM:   3    -0.351608510277E+03   -0.15599E-03   -0.45480E-04  1072   0.398E-02    0.376E-02
RMM:   4    -0.351608707652E+03   -0.19737E-03   -0.18171E-04  1072   0.283E-02    0.836E-03
RMM:   5    -0.351608782973E+03   -0.75321E-04   -0.16262E-05  1053   0.883E-03    0.852E-03
RMM:   6    -0.351608790704E+03   -0.77312E-05   -0.78605E-06  1017   0.578E-03    0.685E-03
RMM:   7    -0.351608799493E+03   -0.87892E-05   -0.28346E-06   771   0.384E-03    0.441E-03
RMM:   8    -0.351608809238E+03   -0.97444E-05   -0.46909E-07   688   0.178E-03    0.405E-03
RMM:   9    -0.351608811084E+03   -0.18466E-05   -0.23309E-07   671   0.102E-03    0.417E-03
RMM:  10    -0.351608808075E+03    0.30094E-05   -0.24632E-07   688   0.126E-03    0.366E-03
RMM:  11    -0.351608809309E+03   -0.12335E-05   -0.29889E-07   680   0.118E-03    0.351E-03
RMM:  12    -0.351608808939E+03    0.36941E-06   -0.78901E-08   549   0.640E-04
  49 F= -.35292256E+03 E0= -.35292256E+03  d E =-.561238E-03
 trial-energy change:   -0.000561  1 .order   -0.000568   -0.000662   -0.000475
 step:   0.8942(harm=  0.8942)  dis= 0.00323  next Energy=  -352.923174 (dE=-0.117E-02)
 bond charge predicted
       N       E                     dE             d eps       ncg     rms          rms(c)
RMM:   1    -0.351610379638E+03   -0.15703E-02   -0.68446E-01  1072   0.227E+00    0.980E-02
RMM:   2    -0.351609373905E+03    0.10057E-02   -0.53322E-03  1081   0.157E-01    0.170E-02
RMM:   3    -0.351609440977E+03   -0.67071E-04   -0.61705E-04  1188   0.344E-02    0.125E-02
RMM:   4    -0.351609451512E+03   -0.10536E-04   -0.21863E-05  1092   0.951E-03    0.429E-03
RMM:   5    -0.351609446341E+03    0.51715E-05   -0.19110E-06   718   0.271E-03    0.390E-03
RMM:   6    -0.351609446739E+03   -0.39825E-06   -0.13198E-06   691   0.240E-03
  50 F= -.35292318E+03 E0= -.35292318E+03  d E =-.118229E-02
 curvature:  -1.39 expect dE=-0.685E-02 dE for cont linesearch -0.107E-07
 trial: gam= 1.87480 g(F)=  0.492E-02 g(S)=  0.000E+00 ort =-0.792E-05 (trialstep = 0.925E-01)
 search vector abs. value=  0.336E-01
 bond charge predicted
       N       E                     dE             d eps       ncg     rms          rms(c)
RMM:   1    -0.351609945666E+03   -0.49933E-03   -0.49316E-02  1072   0.613E-01    0.264E-02
RMM:   2    -0.351609874627E+03    0.71039E-04   -0.50818E-04  1110   0.474E-02    0.344E-02
RMM:   3    -0.351609835929E+03    0.38699E-04   -0.19815E-04  1074   0.253E-02    0.176E-02
RMM:   4    -0.351609872582E+03   -0.36653E-04   -0.49510E-05  1072   0.146E-02    0.677E-03
RMM:   5    -0.351609865886E+03    0.66954E-05   -0.82353E-06  1040   0.574E-03    0.366E-03
RMM:   6    -0.351609861696E+03    0.41906E-05   -0.69416E-07   688   0.199E-03    0.376E-03
RMM:   7    -0.351609865675E+03   -0.39799E-05   -0.13191E-06   688   0.259E-03    0.480E-03
RMM:   8    -0.351609864259E+03    0.14165E-05   -0.37357E-07   688   0.157E-03    0.391E-03
RMM:   9    -0.351609863401E+03    0.85762E-06   -0.35537E-07   685   0.135E-03
  51 F= -.35292361E+03 E0= -.35292361E+03  d E =-.423476E-03
 ZBRENT: can't locate minimum, use default step
 trial-energy change:   -0.000423  1 .order   -0.000433   -0.000454   -0.000412
 step:   0.3699(harm=  1.0018)  dis= 0.00273  next Energy=  -352.925640 (dE=-0.246E-02)
 bond charge predicted
       N       E                     dE             d eps       ncg     rms          rms(c)
RMM:   1    -0.351611553069E+03   -0.16888E-02   -0.44373E-01  1072   0.184E+00    0.783E-02
RMM:   2    -0.351610841095E+03    0.71197E-03   -0.31010E-03  1084   0.122E-01    0.186E-02
RMM:   3    -0.351610883453E+03   -0.42358E-04   -0.38065E-04  1184   0.266E-02    0.493E-03
RMM:   4    -0.351610883812E+03   -0.35937E-06   -0.85310E-06   883   0.559E-03
  52 F= -.35292465E+03 E0= -.35292465E+03  d E =-.146543E-02
 curvature:  -1.78 expect dE=-0.421E-02 dE for cont linesearch -0.476E-03
 ZBRENT: increasing intervall
 opt :   0.9247  next Energy=  -352.925510 (dE=-0.233E-02)
 bond charge predicted
       N       E                     dE             d eps       ncg     rms          rms(c)
RMM:   1    -0.351614429233E+03   -0.35458E-02   -0.17771E+00  1072   0.368E+00    0.156E-01
RMM:   2    -0.351611501487E+03    0.29277E-02   -0.12395E-02  1081   0.244E-01    0.336E-02
RMM:   3    -0.351611701705E+03   -0.20022E-03   -0.15780E-03  1183   0.539E-02    0.695E-03
RMM:   4    -0.351611700629E+03    0.10756E-05   -0.25457E-05  1087   0.939E-03    0.587E-03
RMM:   5    -0.351611697249E+03    0.33797E-05   -0.45528E-06   799   0.335E-03    0.521E-03
RMM:   6    -0.351611696726E+03    0.52346E-06   -0.66212E-07   688   0.177E-03
  53 F= -.35292551E+03 E0= -.35292551E+03  d E =-.232630E-02
 curvature:  -3.21 expect dE=-0.100E-01 dE for cont linesearch -0.415E-05
 trial: gam= 0.59428 g(F)=  0.311E-02 g(S)=  0.000E+00 ort = 0.208E-03 (trialstep = 0.259E+00)
 search vector abs. value=  0.152E-01
 bond charge predicted
       N       E                     dE             d eps       ncg     rms          rms(c)
RMM:   1    -0.351612545806E+03   -0.84856E-03   -0.81605E-02  1072   0.823E-01    0.418E-02
RMM:   2    -0.351612140614E+03    0.40519E-03   -0.65479E-04  1072   0.569E-02    0.380E-02
RMM:   3    -0.351612327313E+03   -0.18670E-03   -0.26235E-04  1072   0.343E-02    0.174E-02
RMM:   4    -0.351612373120E+03   -0.45807E-04   -0.60860E-05  1120   0.151E-02    0.170E-02
RMM:   5    -0.351612381876E+03   -0.87565E-05   -0.13858E-05  1030   0.715E-03    0.120E-02
RMM:   6    -0.351612394624E+03   -0.12747E-04   -0.11692E-06   688   0.252E-03    0.853E-03
RMM:   7    -0.351612395012E+03   -0.38812E-06   -0.14763E-06   688   0.287E-03
  54 F= -.35292617E+03 E0= -.35292617E+03  d E =-.658510E-03
 trial-energy change:   -0.000659  1 .order   -0.000702   -0.000838   -0.000566
 step:   0.7978(harm=  0.7978)  dis= 0.00279  next Energy=  -352.926799 (dE=-0.129E-02)
 bond charge predicted
       N       E                     dE             d eps       ncg     rms          rms(c)
RMM:   1    -0.351613553209E+03   -0.11586E-02   -0.35341E-01  1072   0.171E+00    0.872E-02
RMM:   2    -0.351612946046E+03    0.60716E-03   -0.24363E-03  1072   0.115E-01    0.752E-03
RMM:   3    -0.351612989397E+03   -0.43352E-04   -0.30209E-04  1203   0.244E-02    0.782E-03
RMM:   4    -0.351613010906E+03   -0.21509E-04   -0.44966E-06   858   0.464E-03    0.467E-03
RMM:   5    -0.351613019498E+03   -0.85918E-05   -0.13133E-06   693   0.263E-03    0.404E-03
RMM:   6    -0.351613037248E+03   -0.17750E-04   -0.65094E-07   688   0.197E-03    0.361E-03
RMM:   7    -0.351613045760E+03   -0.85119E-05   -0.21332E-07   688   0.110E-03    0.373E-03
RMM:   8    -0.351613050822E+03   -0.50625E-05   -0.50062E-08   464   0.631E-04    0.371E-03
RMM:   9    -0.351613052827E+03   -0.20048E-05   -0.67265E-08   568   0.691E-04    0.375E-03
RMM:  10    -0.351613054299E+03   -0.14717E-05   -0.24492E-08   411   0.503E-04    0.377E-03
RMM:  11    -0.351613054937E+03   -0.63866E-06   -0.15704E-09   308   0.406E-04
  55 F= -.35292675E+03 E0= -.35292675E+03  d E =-.123785E-02
 curvature:  -1.88 expect dE=-0.763E-02 dE for cont linesearch -0.270E-06
 trial: gam= 1.38038 g(F)=  0.406E-02 g(S)=  0.000E+00 ort =-0.468E-04 (trialstep = 0.170E+00)
 search vector abs. value=  0.330E-01
 bond charge predicted
       N       E                     dE             d eps       ncg     rms          rms(c)
RMM:   1    -0.351613703124E+03   -0.64883E-03   -0.71790E-02  1072   0.780E-01    0.385E-02
RMM:   2    -0.351613390727E+03    0.31240E-03   -0.66506E-04  1074   0.586E-02    0.370E-02
RMM:   3    -0.351613450962E+03   -0.60234E-04   -0.17918E-04  1074   0.260E-02    0.187E-02
RMM:   4    -0.351613567590E+03   -0.11663E-03   -0.35894E-05  1118   0.120E-02    0.888E-03
RMM:   5    -0.351613603430E+03   -0.35840E-04   -0.12058E-05  1072   0.737E-03    0.720E-03
RMM:   6    -0.351613607703E+03   -0.42731E-05   -0.28108E-06   765   0.389E-03    0.509E-03
RMM:   7    -0.351613619168E+03   -0.11465E-04   -0.28815E-06   773   0.347E-03    0.421E-03
RMM:   8    -0.351613627891E+03   -0.87232E-05   -0.36251E-07   688   0.147E-03    0.416E-03
RMM:   9    -0.351613629031E+03   -0.11400E-05   -0.29468E-07   688   0.126E-03    0.362E-03
RMM:  10    -0.351613628155E+03    0.87587E-06   -0.32808E-07   684   0.125E-03
  56 F= -.35292736E+03 E0= -.35292736E+03  d E =-.617792E-03
 ZBRENT: can't locate minimum, use default step
 trial-energy change:   -0.000618  1 .order   -0.000621   -0.000677   -0.000565
 step:   0.6780(harm=  1.0215)  dis= 0.00408  next Energy=  -352.928786 (dE=-0.204E-02)
 bond charge predicted
       N       E                     dE             d eps       ncg     rms          rms(c)
RMM:   1    -0.351615371809E+03   -0.17428E-02   -0.64637E-01  1072   0.234E+00    0.115E-01
RMM:   2    -0.351614615785E+03    0.75602E-03   -0.47859E-03  1073   0.157E-01    0.170E-02
RMM:   3    -0.351614680980E+03   -0.65195E-04   -0.63973E-04  1206   0.374E-02    0.849E-03
RMM:   4    -0.351614674875E+03    0.61055E-05   -0.10061E-05   950   0.643E-03    0.522E-03
RMM:   5    -0.351614670274E+03    0.46006E-05   -0.27883E-06   768   0.352E-03    0.396E-03
RMM:   6    -0.351614669968E+03    0.30615E-06   -0.28219E-07   680   0.126E-03
  57 F= -.35292854E+03 E0= -.35292854E+03  d E =-.179712E-02
 curvature:  -3.53 expect dE=-0.121E-01 dE for cont linesearch -0.205E-03
 ZBRENT: increasing intervall
 opt :   1.6951  next Energy=  -352.927971 (dE=-0.123E-02)
 bond charge predicted
       N       E                     dE             d eps       ncg     rms          rms(c)
RMM:   1    -0.351616649407E+03   -0.19791E-02   -0.25869E+00  1072   0.468E+00    0.230E-01
RMM:   2    -0.351613474904E+03    0.31745E-02   -0.18997E-02  1073   0.313E-01    0.417E-02
RMM:   3    -0.351613757046E+03   -0.28214E-03   -0.24168E-03  1205   0.713E-02    0.757E-03
RMM:   4    -0.351613757527E+03   -0.48066E-06   -0.32654E-05  1129   0.113E-02    0.406E-03
RMM:   5    -0.351613751652E+03    0.58743E-05   -0.30267E-06   764   0.309E-03    0.370E-03
RMM:   6    -0.351613753590E+03   -0.19382E-05   -0.40867E-07   618   0.120E-03    0.366E-03
RMM:   7    -0.351613755387E+03   -0.17962E-05   -0.38231E-07   684   0.124E-03    0.371E-03
RMM:   8    -0.351613759009E+03   -0.36223E-05   -0.93520E-08   548   0.858E-04    0.370E-03
RMM:   9    -0.351613758804E+03    0.20454E-06   -0.53236E-08   536   0.653E-04
  58 F= -.35292792E+03 E0= -.35292792E+03  d E =-.117810E-02
 curvature:   9.83 expect dE= 0.177E+00 dE for cont linesearch  0.194E-02
 ZBRENT: bracketing found
 ZBRENT: interpolating
 opt :   1.0361  next Energy=  -352.928791 (dE=-0.205E-02)
 bond charge predicted
       N       E                     dE             d eps       ncg     rms          rms(c)
RMM:   1    -0.351615861484E+03   -0.21025E-02   -0.10841E+00  1072   0.303E+00    0.150E-01
RMM:   2    -0.351614650352E+03    0.12111E-02   -0.80922E-03  1073   0.205E-01    0.226E-02
RMM:   3    -0.351614800460E+03   -0.15011E-03   -0.10145E-03  1210   0.459E-02    0.566E-03
RMM:   4    -0.351614803650E+03   -0.31904E-05   -0.13219E-05  1035   0.729E-03    0.428E-03
RMM:   5    -0.351614810701E+03   -0.70504E-05   -0.85248E-07   694   0.192E-03    0.405E-03
RMM:   6    -0.351614811704E+03   -0.10031E-05   -0.25469E-07   687   0.105E-03    0.379E-03
RMM:   7    -0.351614811090E+03    0.61364E-06   -0.23225E-07   665   0.106E-03
  59 F= -.35292878E+03 E0= -.35292878E+03  d E =-.203850E-02
 curvature:  -1.26 expect dE=-0.814E-02 dE for cont linesearch -0.194E-07
 trial: gam= 1.49720 g(F)=  0.647E-02 g(S)=  0.000E+00 ort = 0.225E-04 (trialstep = 0.141E+00)
 search vector abs. value=  0.805E-01
 bond charge predicted
       N       E                     dE             d eps       ncg     rms          rms(c)
RMM:   1    -0.351615787125E+03   -0.97542E-03   -0.18163E-01  1072   0.122E+00    0.566E-02
RMM:   2    -0.351615248375E+03    0.53875E-03   -0.14581E-03  1072   0.869E-02    0.228E-02
RMM:   3    -0.351615383110E+03   -0.13474E-03   -0.17916E-04  1196   0.191E-02    0.151E-02
RMM:   4    -0.351615571443E+03   -0.18833E-03   -0.31803E-05  1072   0.108E-02    0.574E-03
RMM:   5    -0.351615597020E+03   -0.25577E-04   -0.15407E-05  1025   0.751E-03    0.789E-03
RMM:   6    -0.351615604515E+03   -0.74957E-05   -0.62583E-06  1001   0.518E-03    0.600E-03
RMM:   7    -0.351615620182E+03   -0.15667E-04   -0.16512E-06   718   0.290E-03    0.585E-03
RMM:   8    -0.351615614157E+03    0.60251E-05   -0.17614E-06   698   0.289E-03    0.438E-03
RMM:   9    -0.351615613092E+03    0.10649E-05   -0.51363E-07   688   0.158E-03    0.395E-03
RMM:  10    -0.351615613268E+03   -0.17565E-06   -0.84334E-08   496   0.746E-04
  60 F= -.35292964E+03 E0= -.35292964E+03  d E =-.852832E-03
 ZBRENT: can't locate minimum, use default step
 trial-energy change:   -0.000853  1 .order   -0.000849   -0.000914   -0.000784
 step:   0.5621(harm=  0.9907)  dis= 0.00457  next Energy=  -352.932005 (dE=-0.322E-02)
 bond charge predicted
       N       E                     dE             d eps       ncg     rms          rms(c)
RMM:   1    -0.351618885137E+03   -0.32720E-02   -0.16351E+00  1072   0.365E+00    0.169E-01
RMM:   2    -0.351617020078E+03    0.18651E-02   -0.12336E-02  1073   0.252E-01    0.234E-02
RMM:   3    -0.351617206998E+03   -0.18692E-03   -0.15175E-03  1199   0.572E-02    0.101E-02
RMM:   4    -0.351617211578E+03   -0.45793E-05   -0.26292E-05  1100   0.102E-02    0.541E-03
RMM:   5    -0.351617209151E+03    0.24269E-05   -0.31343E-06   752   0.316E-03    0.464E-03
[...]
 curvature:  -5.01 expect dE=-0.247E-01 dE for cont linesearch -0.712E-08
 trial: gam= 0.67385 g(F)=  0.494E-02 g(S)=  0.000E+00 ort =-0.126E-04 (trialstep = 0.310E+00)
 search vector abs. value=  0.553E-01
 bond charge predicted
       N       E                     dE             d eps       ncg     rms          rms(c)
RMM:   1    -0.351621510412E+03   -0.18168E-02   -0.59194E-01  1072   0.220E+00    0.105E-01
RMM:   2    -0.351620472244E+03    0.10382E-02   -0.43867E-03  1072   0.151E-01    0.337E-02
RMM:   3    -0.351620537922E+03   -0.65678E-04   -0.81790E-04  1168   0.461E-02    0.355E-02
RMM:   4    -0.351620754280E+03   -0.21636E-03   -0.35162E-05  1092   0.111E-02    0.368E-02
RMM:   5    -0.351620859686E+03   -0.10541E-03   -0.44958E-05  1072   0.151E-02    0.117E-02
RMM:   6    -0.351620939428E+03   -0.79741E-04   -0.69894E-06   928   0.521E-03    0.120E-02
RMM:   7    -0.351620949997E+03   -0.10569E-04   -0.16981E-06   688   0.306E-03    0.832E-03
RMM:   8    -0.351620955281E+03   -0.52841E-05   -0.60200E-06   930   0.489E-03    0.500E-03
RMM:   9    -0.351620957388E+03   -0.21069E-05   -0.49574E-07   688   0.183E-03    0.376E-03
RMM:  10    -0.351620957948E+03   -0.56004E-06   -0.53231E-07   688   0.170E-03
  66 F= -.35293567E+03 E0= -.35293567E+03  d E =-.131005E-02
 trial-energy change:   -0.001310  1 .order   -0.001317   -0.001530   -0.001104
 step:   1.1130(harm=  1.1130)  dis= 0.00728  next Energy=  -352.937103 (dE=-0.274E-02)
 bond charge predicted
       N       E                     dE             d eps       ncg     rms          rms(c)
RMM:   1    -0.351625999570E+03   -0.50422E-02   -0.39642E+00  1072   0.569E+00    0.270E-01
RMM:   2    -0.351621651370E+03    0.43482E-02   -0.29529E-02  1072   0.390E-01    0.520E-02
RMM:   3    -0.351622200683E+03   -0.54931E-03   -0.38161E-03  1196   0.883E-02    0.141E-02
RMM:   4    -0.351622194195E+03    0.64880E-05   -0.61438E-05  1115   0.157E-02    0.704E-03
RMM:   5    -0.351622198171E+03   -0.39756E-05   -0.10041E-05   914   0.517E-03    0.543E-03
RMM:   6    -0.351622200309E+03   -0.21386E-05   -0.53491E-07   688   0.157E-03    0.556E-03
RMM:   7    -0.351622201125E+03   -0.81549E-06   -0.78158E-07   688   0.191E-03
  67 F= -.35293704E+03 E0= -.35293704E+03  d E =-.268105E-02
 curvature:  -6.24 expect dE=-0.423E-01 dE for cont linesearch -0.117E-06
 trial: gam= 1.34940 g(F)=  0.678E-02 g(S)=  0.000E+00 ort =-0.322E-04 (trialstep = 0.242E+00)
 search vector abs. value=  0.107E+00
 bond charge predicted
       N       E                     dE             d eps       ncg     rms          rms(c)
RMM:   1    -0.351623757879E+03   -0.15576E-02   -0.62085E-01  1072   0.226E+00    0.119E-01
RMM:   2    -0.351622637654E+03    0.11202E-02   -0.67106E-03  1072   0.181E-01    0.790E-02
RMM:   3    -0.351622479394E+03    0.15826E-03   -0.88924E-04  1160   0.521E-02    0.383E-02
RMM:   4    -0.351622768518E+03   -0.28912E-03   -0.32286E-04  1075   0.348E-02    0.478E-02
RMM:   5    -0.351622948047E+03   -0.17953E-03   -0.51561E-05  1072   0.154E-02    0.317E-02
RMM:   6    -0.351623027762E+03   -0.79715E-04   -0.15698E-05  1058   0.820E-03    0.226E-02
RMM:   7    -0.351623074270E+03   -0.46508E-04   -0.18421E-05  1072   0.856E-03    0.142E-02
RMM:   8    -0.351623090170E+03   -0.15899E-04   -0.50960E-06   954   0.545E-03    0.747E-03
RMM:   9    -0.351623099034E+03   -0.88637E-05   -0.44517E-06   884   0.467E-03    0.652E-03
RMM:  10    -0.351623094691E+03    0.43424E-05   -0.10334E-06   688   0.265E-03    0.450E-03
RMM:  11    -0.351623093480E+03    0.12113E-05   -0.13199E-06   688   0.259E-03    0.366E-03
RMM:  12    -0.351623096441E+03   -0.29607E-05   -0.39364E-07   688   0.158E-03    0.381E-03
RMM:  13    -0.351623096744E+03   -0.30366E-06   -0.10509E-07   592   0.786E-04
  68 F= -.35293812E+03 E0= -.35293812E+03  d E =-.107627E-02
 trial-energy change:   -0.001076  1 .order   -0.001102   -0.001634   -0.000570
 step:   0.4160(harm=  0.3724)  dis= 0.00435  next Energy=  -352.938311 (dE=-0.127E-02)
 bond charge predicted
       N       E                     dE             d eps       ncg     rms          rms(c)
RMM:   1    -0.351623423484E+03   -0.32704E-03   -0.31841E-01  1072   0.162E+00    0.850E-02
RMM:   2    -0.351623054960E+03    0.36852E-03   -0.24141E-03  1072   0.112E-01    0.152E-02
RMM:   3    -0.351623084805E+03   -0.29846E-04   -0.32417E-04  1173   0.270E-02    0.595E-03
RMM:   4    -0.351623083191E+03    0.16147E-05   -0.70883E-06   846   0.512E-03    0.410E-03
RMM:   5    -0.351623085676E+03   -0.24853E-05   -0.15435E-06   735   0.207E-03    0.390E-03
RMM:   6    -0.351623088244E+03   -0.25679E-05   -0.28045E-07   688   0.117E-03    0.388E-03
RMM:   7    -0.351623090812E+03   -0.25680E-05   -0.97742E-08   553   0.762E-04    0.373E-03
RMM:   8    -0.351623090904E+03   -0.91859E-07   -0.21926E-08   390   0.542E-04
  69 F= -.35293824E+03 E0= -.35293824E+03  d E =-.120075E-02
 curvature:  -2.63 expect dE=-0.135E-02 dE for cont linesearch -0.146E-04
 ZBRENT: interpolating
 opt :   0.3732  next Energy=  -352.938257 (dE=-0.122E-02)
 bond charge predicted
       N       E                     dE             d eps       ncg     rms          rms(c)
RMM:   1    -0.351623161371E+03   -0.70559E-04   -0.19396E-02  1072   0.400E-01    0.212E-02
RMM:   2    -0.351623141820E+03    0.19551E-04   -0.14835E-04  1072   0.278E-02    0.482E-03
RMM:   3    -0.351623147404E+03   -0.55841E-05   -0.18721E-05  1085   0.636E-03    0.366E-03
RMM:   4    -0.351623148339E+03   -0.93457E-06   -0.26992E-07   679   0.116E-03
  70 F= -.35293827E+03 E0= -.35293827E+03  d E =-.122594E-02
 curvature:  -2.98 expect dE=-0.109E-02 dE for cont linesearch -0.135E-08
 trial: gam= 0.03499 g(F)=  0.365E-03 g(S)=  0.000E+00 ort =-0.698E-05 (trialstep = 0.269E+00)
 search vector abs. value=  0.496E-03
 bond charge predicted
       N       E                     dE             d eps       ncg     rms          rms(c)
RMM:   1    -0.351623227375E+03   -0.79971E-04   -0.33568E-03  1072   0.163E-01    0.142E-02
RMM:   2    -0.351623217826E+03    0.95497E-05   -0.50002E-05  1072   0.154E-02    0.185E-02
RMM:   3    -0.351623198328E+03    0.19497E-04   -0.67008E-05  1072   0.173E-02    0.125E-02
RMM:   4    -0.351623221153E+03   -0.22824E-04   -0.36039E-06   835   0.461E-03    0.804E-03
RMM:   5    -0.351623222565E+03   -0.14119E-05   -0.39211E-06   882   0.411E-03    0.632E-03
RMM:   6    -0.351623220881E+03    0.16832E-05   -0.24136E-06   720   0.347E-03    0.536E-03
RMM:   7    -0.351623221703E+03   -0.82193E-06   -0.75600E-07   688   0.214E-03
  71 F= -.35293834E+03 E0= -.35293834E+03  d E =-.714917E-04
 trial-energy change:   -0.000071  1 .order   -0.000071   -0.000098   -0.000044
 step:   0.4896(harm=  0.4896)  dis= 0.00050  next Energy=  -352.938355 (dE=-0.894E-04)
 bond charge predicted
       N       E                     dE             d eps       ncg     rms          rms(c)
RMM:   1    -0.351623243306E+03   -0.22424E-04   -0.22666E-03  1072   0.134E-01    0.117E-02
RMM:   2    -0.351623239369E+03    0.39364E-05   -0.18282E-05  1072   0.108E-02    0.373E-03
RMM:   3    -0.351623237875E+03    0.14948E-05   -0.15545E-06   691   0.268E-03    0.384E-03
RMM:   4    -0.351623232656E+03    0.52188E-05   -0.19575E-07   640   0.956E-04    0.373E-03
RMM:   5    -0.351623230583E+03    0.20733E-05   -0.85746E-08   524   0.705E-04    0.367E-03
RMM:   6    -0.351623229913E+03    0.66973E-06   -0.17059E-07   688   0.913E-04
  72 F= -.35293834E+03 E0= -.35293834E+03  d E =-.781980E-04
 curvature:  -0.33 expect dE=-0.504E-04 dE for cont linesearch -0.133E-07
 trial: gam= 0.42666 g(F)=  0.152E-03 g(S)=  0.000E+00 ort =-0.445E-05 (trialstep = 0.313E+00)
 search vector abs. value=  0.238E-03
 bond charge predicted
       N       E                     dE             d eps       ncg     rms          rms(c)
RMM:   1    -0.351623255540E+03   -0.24957E-04   -0.15447E-03  1072   0.110E-01    0.100E-02
RMM:   2    -0.351623222996E+03    0.32544E-04   -0.13702E-04  1072   0.227E-02    0.234E-02
RMM:   3    -0.351623220270E+03    0.27262E-05   -0.13234E-04  1072   0.247E-02    0.177E-02
RMM:   4    -0.351623243325E+03   -0.23055E-04   -0.12639E-05  1072   0.802E-03    0.712E-03
RMM:   5    -0.351623255849E+03   -0.12525E-04   -0.75240E-06  1024   0.570E-03    0.384E-03
RMM:   6    -0.351623256968E+03   -0.11184E-05   -0.31215E-07   688   0.142E-03    0.371E-03
RMM:   7    -0.351623257467E+03   -0.49943E-06   -0.17579E-07   680   0.969E-04
  73 F= -.35293838E+03 E0= -.35293838E+03  d E =-.350004E-04
 trial-energy change:   -0.000035  1 .order   -0.000031   -0.000047   -0.000015
 step:   0.3891(harm=  0.4619)  dis= 0.00027  next Energy=  -352.938381 (dE=-0.369E-04)
 bond charge predicted
       N       E                     dE             d eps       ncg     rms          rms(c)
RMM:   1    -0.351623257749E+03   -0.78105E-06   -0.92693E-05  1072   0.268E-02    0.453E-03
RMM:   2    -0.351623257122E+03    0.62692E-06   -0.91259E-07   688   0.220E-03    0.378E-03
RMM:   3    -0.351623256893E+03    0.22847E-06   -0.41784E-07   688   0.140E-03    0.362E-03
RMM:   4    -0.351623256803E+03    0.90071E-07   -0.11526E-07   505   0.758E-04
  74 F= -.35293838E+03 E0= -.35293838E+03  d E =-.361582E-04
 curvature:  -0.28 expect dE=-0.181E-04 dE for cont linesearch -0.584E-06
 trial: gam= 0.26128 g(F)=  0.646E-04 g(S)=  0.000E+00 ort = 0.223E-04 (trialstep = 0.328E+00)
 search vector abs. value=  0.925E-04
 bond charge predicted
       N       E                     dE             d eps       ncg     rms          rms(c)
RMM:   1    -0.351623284277E+03   -0.27383E-04   -0.10927E-03  1072   0.925E-02    0.608E-03
RMM:   2    -0.351623267168E+03    0.17109E-04   -0.13706E-05  1072   0.871E-03    0.806E-03
RMM:   3    -0.351623283064E+03   -0.15897E-04   -0.27902E-06   804   0.337E-03    0.593E-03
RMM:   4    -0.351623281706E+03    0.13584E-05   -0.13491E-06   688   0.261E-03    0.449E-03
RMM:   5    -0.351623280173E+03    0.15329E-05   -0.49438E-07   688   0.162E-03    0.411E-03
RMM:   6    -0.351623282403E+03   -0.22306E-05   -0.26246E-07   688   0.161E-03    0.386E-03
RMM:   7    -0.351623279626E+03    0.27772E-05   -0.15597E-07   688   0.103E-03    0.366E-03
RMM:   8    -0.351623281697E+03   -0.20711E-05   -0.18684E-07   688   0.107E-03    0.362E-03
RMM:   9    -0.351623281035E+03    0.66255E-06    0.00000E+00   301   0.387E-04
  75 F= -.35293840E+03 E0= -.35293840E+03  d E =-.203888E-04
 ZBRENT: can't locate minimum, use default step
 trial-energy change:   -0.000020  1 .order   -0.000021   -0.000023   -0.000020
 step:   1.3122(harm=  2.1115)  dis= 0.00029  next Energy=  -352.938454 (dE=-0.744E-04)
 bond charge predicted
       N       E                     dE             d eps       ncg     rms          rms(c)
RMM:   1    -0.351623348909E+03   -0.67212E-04   -0.98201E-03  1072   0.277E-01    0.155E-02
RMM:   2    -0.351623336382E+03    0.12528E-04   -0.60181E-05  1072   0.195E-02    0.459E-03
RMM:   3    -0.351623338832E+03   -0.24506E-05   -0.54199E-06   887   0.409E-03    0.383E-03
RMM:   4    -0.351623339780E+03   -0.94814E-06   -0.29250E-07   688   0.127E-03
  76 F= -.35293845E+03 E0= -.35293845E+03  d E =-.676436E-04
 curvature:  -1.11 expect dE=-0.928E-04 dE for cont linesearch -0.645E-05
 trial: gam= 0.00000 g(F)=  0.838E-04 g(S)=  0.000E+00 ort = 0.232E-04 (trialstep = 0.525E+00)
 search vector abs. value=  0.838E-04
 bond charge predicted
       N       E                     dE             d eps       ncg     rms          rms(c)
RMM:   1    -0.351623333549E+03    0.52831E-05   -0.21390E-03  1072   0.132E-01    0.124E-02
RMM:   2    -0.351623240138E+03    0.93411E-04   -0.61391E-05  1072   0.185E-02    0.191E-02
RMM:   3    -0.351623242880E+03   -0.27421E-05   -0.46839E-05  1072   0.144E-02    0.993E-03
RMM:   4    -0.351623294024E+03   -0.51144E-04   -0.13880E-05  1070   0.769E-03    0.531E-03
RMM:   5    -0.351623307889E+03   -0.13866E-04   -0.30221E-06   814   0.352E-03    0.582E-03
RMM:   6    -0.351623311979E+03   -0.40898E-05   -0.62676E-07   688   0.206E-03    0.431E-03
RMM:   7    -0.351623316023E+03   -0.40439E-05   -0.78816E-07   688   0.206E-03    0.383E-03
RMM:   8    -0.351623322121E+03   -0.60974E-05   -0.82679E-07   688   0.191E-03    0.366E-03
RMM:   9    -0.351623325221E+03   -0.31007E-05   -0.15020E-07   634   0.872E-04    0.365E-03
RMM:  10    -0.351623327019E+03   -0.17981E-05   -0.25677E-09   317   0.454E-04    0.364E-03
RMM:  11    -0.351623328231E+03   -0.12116E-05   -0.32801E-08   476   0.590E-04    0.361E-03
RMM:  12    -0.351623328421E+03   -0.19013E-06   -0.93856E-09   352   0.497E-04
  77 F= -.35293846E+03 E0= -.35293846E+03  d E =-.171133E-04
 trial-energy change:   -0.000017  1 .order   -0.000014   -0.000044    0.000016
 step:   0.3838(harm=  0.3838)  dis= 0.00012  next Energy=  -352.938464 (dE=-0.161E-04)
 bond charge predicted
       N       E                     dE             d eps       ncg     rms          rms(c)
RMM:   1    -0.351623339061E+03   -0.10830E-04   -0.15470E-04  1072   0.355E-02    0.474E-03
RMM:   2    -0.351623339280E+03   -0.21896E-06   -0.11635E-06   688   0.293E-03    0.363E-03
RMM:   3    -0.351623339728E+03   -0.44736E-06   -0.19581E-07   688   0.119E-03    0.360E-03
RMM:   4    -0.351623339692E+03    0.35963E-07   -0.19057E-08   376   0.560E-04
  78 F= -.35293847E+03 E0= -.35293847E+03  d E =-.207296E-04
 curvature:  -0.19 expect dE=-0.659E-05 dE for cont linesearch -0.173E-09
 trial: gam= 0.40630 g(F)=  0.343E-04 g(S)=  0.000E+00 ort = 0.275E-06 (trialstep = 0.497E+00)
 search vector abs. value=  0.484E-04
 bond charge predicted
       N       E                     dE             d eps       ncg     rms          rms(c)
RMM:   1    -0.351623360117E+03   -0.20390E-04   -0.46424E-04  1072   0.611E-02    0.563E-03
RMM:   2    -0.351623356551E+03    0.35661E-05   -0.80300E-06  1072   0.678E-03    0.587E-03
RMM:   3    -0.351623362369E+03   -0.58172E-05   -0.46988E-06   923   0.427E-03    0.373E-03
RMM:   4    -0.351623360838E+03    0.15303E-05   -0.27275E-07   688   0.131E-03    0.364E-03
RMM:   5    -0.351623361133E+03   -0.29500E-06   -0.73629E-08   539   0.666E-04
  79 F= -.35293848E+03 E0= -.35293848E+03  d E =-.160804E-04
 trial-energy change:   -0.000016  1 .order   -0.000014   -0.000017   -0.000011
 step:   1.4348(harm=  1.4348)  dis= 0.00031  next Energy=  -352.938493 (dE=-0.247E-04)
 bond charge predicted
       N       E                     dE             d eps       ncg     rms          rms(c)
RMM:   1    -0.351623384142E+03   -0.23304E-04   -0.16604E-03  1072   0.115E-01    0.889E-03
RMM:   2    -0.351623379964E+03    0.41787E-05   -0.11547E-05  1072   0.886E-03    0.366E-03
RMM:   3    -0.351623380491E+03   -0.52718E-06   -0.75839E-07   688   0.192E-03    0.364E-03
RMM:   4    -0.351623379399E+03    0.10916E-05   -0.14749E-07   608   0.758E-04    0.361E-03
RMM:   5    -0.351623379629E+03   -0.22984E-06   -0.89150E-08   523   0.683E-04
  80 F= -.35293849E+03 E0= -.35293849E+03  d E =-.244800E-04
 curvature:  -1.01 expect dE=-0.138E-03 dE for cont linesearch -0.288E-07
 trial: gam= 3.94848 g(F)=  0.137E-03 g(S)=  0.000E+00 ort = 0.118E-05 (trialstep = 0.368E-01)
 search vector abs. value=  0.900E-03
 bond charge predicted
       N       E                     dE             d eps       ncg     rms          rms(c)
RMM:   1    -0.351623386739E+03   -0.73398E-05   -0.48487E-05  1072   0.196E-02    0.381E-03
RMM:   2    -0.351623386436E+03    0.30272E-06   -0.81630E-07   688   0.207E-03    0.377E-03
RMM:   3    -0.351623385363E+03    0.10727E-05   -0.13140E-07   688   0.884E-04    0.363E-03
RMM:   4    -0.351623385393E+03   -0.29617E-07   -0.14335E-07   600   0.840E-04
  81 F= -.35293850E+03 E0= -.35293850E+03  d E =-.446557E-05
 ZBRENT: can't locate minimum, use default step
 trial-energy change:   -0.000004  1 .order   -0.000005   -0.000005   -0.000005
 step:   0.1470(harm=  1.2159)  dis= 0.00013  next Energy=  -352.938579 (dE=-0.862E-04)
 bond charge predicted
       N       E                     dE             d eps       ncg     rms          rms(c)
RMM:   1    -0.351623404938E+03   -0.19574E-04   -0.43314E-04  1072   0.586E-02    0.555E-03
RMM:   2    -0.351623401150E+03    0.37876E-05   -0.27108E-06   749   0.436E-03    0.407E-03
RMM:   3    -0.351623401612E+03   -0.46216E-06   -0.81675E-07   688   0.208E-03    0.373E-03
RMM:   4    -0.351623405002E+03   -0.33897E-05   -0.50020E-07   688   0.147E-03    0.361E-03
RMM:   5    -0.351623405963E+03   -0.96088E-06   -0.89539E-08   565   0.708E-04
  82 F= -.35293851E+03 E0= -.35293851E+03  d E =-.211457E-04
 curvature:  -0.69 expect dE=-0.639E-04 dE for cont linesearch -0.108E-04
 ZBRENT: increasing intervall
 opt :   0.3676  next Energy=  -352.938536 (dE=-0.432E-04)
 bond charge predicted
       N       E                     dE             d eps       ncg     rms          rms(c)
RMM:   1    -0.351623438634E+03   -0.33632E-04   -0.17353E-03  1072   0.117E-01    0.906E-03
RMM:   2    -0.351623438105E+03    0.52894E-06   -0.14131E-05  1072   0.910E-03    0.401E-03
RMM:   3    -0.351623439145E+03   -0.10401E-05   -0.18907E-06   724   0.267E-03    0.360E-03
RMM:   4    -0.351623439512E+03   -0.36646E-06   -0.34325E-07   642   0.113E-03
  83 F= -.35293854E+03 E0= -.35293854E+03  d E =-.469421E-04
 curvature:  -1.41 expect dE=-0.629E-04 dE for cont linesearch -0.109E-04
 ZBRENT: increasing intervall
 opt :   0.8087  next Energy=  -352.938561 (dE=-0.683E-04)
 bond charge predicted
       N       E                     dE             d eps       ncg     rms          rms(c)
RMM:   1    -0.351623483190E+03   -0.44044E-04   -0.69351E-03  1072   0.234E-01    0.165E-02
RMM:   2    -0.351623480022E+03    0.31676E-05   -0.57660E-05  1072   0.183E-02    0.420E-03
RMM:   3    -0.351623481494E+03   -0.14726E-05   -0.62893E-06   939   0.436E-03    0.364E-03
RMM:   4    -0.351623481896E+03   -0.40164E-06   -0.29269E-07   688   0.123E-03
  84 F= -.35293857E+03 E0= -.35293857E+03  d E =-.739288E-04
 curvature:  -2.75 expect dE=-0.421E-04 dE for cont linesearch -0.771E-06
 trial: gam= 0.09013 g(F)=  0.153E-04 g(S)=  0.000E+00 ort = 0.159E-04 (trialstep = 0.191E+00)
 search vector abs. value=  0.255E-04
 bond charge predicted
       N       E                     dE             d eps       ncg     rms          rms(c)
RMM:   1    -0.351623484011E+03   -0.25160E-05   -0.91905E-05  1072   0.269E-02    0.394E-03
RMM:   2    -0.351623480142E+03    0.38684E-05   -0.10255E-06   693   0.229E-03    0.369E-03
RMM:   3    -0.351623481186E+03   -0.10439E-05   -0.22308E-07   688   0.121E-03    0.364E-03
RMM:   4    -0.351623482428E+03   -0.12421E-05   -0.25948E-07   639   0.105E-03    0.362E-03
RMM:   5    -0.351623484597E+03   -0.21688E-05   -0.55607E-08   640   0.759E-04    0.359E-03
RMM:   6    -0.351623484666E+03   -0.69489E-07    0.00000E+00   304   0.299E-04
  85 F= -.35293857E+03 E0= -.35293857E+03  d E =-.454989E-05
 ZBRENT: can't locate minimum, use default step
 trial-energy change:   -0.000005  1 .order   -0.000003   -0.000003   -0.000003
 step:   0.7646(harm=  1.9340)  dis= 0.00011  next Energy=  -352.938583 (dE=-0.162E-04)
 bond charge predicted
       N       E                     dE             d eps       ncg     rms          rms(c)
RMM:   1    -0.351623487276E+03   -0.26788E-05   -0.82080E-04  1072   0.805E-02    0.571E-03
RMM:   2    -0.351623485804E+03    0.14722E-05   -0.79183E-06   969   0.609E-03    0.415E-03
RMM:   3    -0.351623486007E+03   -0.20328E-06   -0.69443E-07   688   0.180E-03    0.380E-03
RMM:   4    -0.351623486218E+03   -0.21135E-06   -0.22012E-07   674   0.971E-04
  86 F= -.35293858E+03 E0= -.35293858E+03  d E =-.114603E-04
 curvature:  -0.81 expect dE=-0.467E-05 dE for cont linesearch -0.260E-05
 trial: gam=-0.10725 g(F)=  0.577E-05 g(S)=  0.000E+00 ort = 0.904E-05 (trialstep = 0.306E+00)
 search vector abs. value=  0.413E-05
 reached required accuracy - stopping structural energy minimisation
 writing wavefunctions
