  93  93   0   0
  0.1016658E+02  0.9814900E-09  0.9814900E-09  0.9814900E-09  0.5000000E-15
  1.000000000000000E-004
  CAR 
 ice                                     
      9.59815386    -24.89133786  301     -1.89823111      1.00000000
    -24.891  0.0000E+00  0.0000E+00
    -24.776  0.0000E+00  0.0000E+00
    -24.661  0.0000E+00  0.0000E+00
    -24.546  0.0000E+00  0.0000E+00
    -24.431  0.0000E+00  0.0000E+00
    -24.317  0.0000E+00  0.0000E+00
    -24.202  0.0000E+00  0.0000E+00
    -24.087  0.0000E+00  0.0000E+00
    -23.972  0.0000E+00  0.0000E+00
    -23.857  0.0000E+00  0.0000E+00
    -23.742  0.6407E-02  0.7365E-03
    -23.627  0.6279E-01  0.7955E-02
    -23.512  0.6126E+00  0.7839E-01
    -23.397  0.5354E+01  0.6939E+00
    -23.282  0.2503E+02  0.3571E+01
    -23.167  0.3766E+02  0.7900E+01
    -23.052  0.2235E+02  0.1047E+02
    -22.937  0.1130E+02  0.1177E+02
    -22.822  0.6770E+01  0.1255E+02
    -22.707  0.1618E+02  0.1442E+02
    -22.592  0.1512E+02  0.1616E+02
    -22.477  0.1400E+02  0.1777E+02
    -22.362  0.1871E+02  0.1992E+02
    -22.247  0.2493E+02  0.2279E+02
    -22.132  0.2945E+02  0.2617E+02
    -22.017  0.2206E+02  0.2871E+02
    -21.902  0.2117E+02  0.3115E+02
    -21.787  0.2834E+02  0.3441E+02
    -21.672  0.2707E+02  0.3753E+02
    -21.557  0.1997E+02  0.3983E+02
    -21.442  0.1799E+02  0.4190E+02
    -21.327  0.3200E+02  0.4558E+02
    -21.212  0.3857E+02  0.5002E+02
    -21.097  0.1497E+02  0.5174E+02
    -20.983  0.3057E+01  0.5209E+02
    -20.868  0.5990E+01  0.5279E+02
    -20.753  0.9156E+01  0.5384E+02
    -20.638  0.8792E+01  0.5485E+02
    -20.523  0.1798E+02  0.5692E+02
    -20.408  0.1279E+02  0.5840E+02
    -20.293  0.1024E+02  0.5957E+02
    -20.178  0.3233E+01  0.5995E+02
    -20.063  0.4293E+00  0.6000E+02
    -19.948  0.3430E+00  0.6004E+02
    -19.833  0.2800E+01  0.6037E+02
    -19.718  0.8831E+01  0.6138E+02
    -19.603  0.4635E+01  0.6191E+02
    -19.488  0.6704E+00  0.6199E+02
    -19.373  0.7026E-01  0.6200E+02
    -19.258  0.0000E+00  0.6200E+02
    -19.143  0.0000E+00  0.6200E+02
    -19.028  0.0000E+00  0.6200E+02
    -18.913  0.0000E+00  0.6200E+02
    -18.798  0.0000E+00  0.6200E+02
    -18.683  0.0000E+00  0.6200E+02
    -18.568  0.0000E+00  0.6200E+02
    -18.453  0.0000E+00  0.6200E+02
    -18.338  0.0000E+00  0.6200E+02
    -18.223  0.0000E+00  0.6200E+02
    -18.108  0.0000E+00  0.6200E+02
    -17.993  0.0000E+00  0.6200E+02
    -17.878  0.0000E+00  0.6200E+02
    -17.764  0.0000E+00  0.6200E+02
    -17.649  0.0000E+00  0.6200E+02
    -17.534  0.0000E+00  0.6200E+02
    -17.419  0.0000E+00  0.6200E+02
    -17.304  0.0000E+00  0.6200E+02
    -17.189  0.0000E+00  0.6200E+02
    -17.074  0.0000E+00  0.6200E+02
    -16.959  0.0000E+00  0.6200E+02
    -16.844  0.0000E+00  0.6200E+02
    -16.729  0.0000E+00  0.6200E+02
    -16.614  0.0000E+00  0.6200E+02
    -16.499  0.0000E+00  0.6200E+02
    -16.384  0.0000E+00  0.6200E+02
    -16.269  0.0000E+00  0.6200E+02
    -16.154  0.0000E+00  0.6200E+02
    -16.039  0.0000E+00  0.6200E+02
    -15.924  0.0000E+00  0.6200E+02
    -15.809  0.0000E+00  0.6200E+02
    -15.694  0.0000E+00  0.6200E+02
    -15.579  0.0000E+00  0.6200E+02
    -15.464  0.0000E+00  0.6200E+02
    -15.349  0.0000E+00  0.6200E+02
    -15.234  0.0000E+00  0.6200E+02
    -15.119  0.0000E+00  0.6200E+02
    -15.004  0.0000E+00  0.6200E+02
    -14.889  0.0000E+00  0.6200E+02
    -14.774  0.0000E+00  0.6200E+02
    -14.659  0.0000E+00  0.6200E+02
    -14.544  0.0000E+00  0.6200E+02
    -14.430  0.0000E+00  0.6200E+02
    -14.315  0.0000E+00  0.6200E+02
    -14.200  0.0000E+00  0.6200E+02
    -14.085  0.0000E+00  0.6200E+02
    -13.970  0.0000E+00  0.6200E+02
    -13.855  0.0000E+00  0.6200E+02
    -13.740  0.0000E+00  0.6200E+02
    -13.625  0.0000E+00  0.6200E+02
    -13.510  0.0000E+00  0.6200E+02
    -13.395  0.0000E+00  0.6200E+02
    -13.280  0.0000E+00  0.6200E+02
    -13.165  0.0000E+00  0.6200E+02
    -13.050  0.0000E+00  0.6200E+02
    -12.935  0.0000E+00  0.6200E+02
    -12.820  0.0000E+00  0.6200E+02
    -12.705  0.0000E+00  0.6200E+02
    -12.590  0.0000E+00  0.6200E+02
    -12.475  0.0000E+00  0.6200E+02
    -12.360  0.0000E+00  0.6200E+02
    -12.245  0.0000E+00  0.6200E+02
    -12.130  0.0000E+00  0.6200E+02
    -12.015  0.0000E+00  0.6200E+02
    -11.900  0.1391E-02  0.6200E+02
    -11.785  0.1804E-01  0.6200E+02
    -11.670  0.1760E+00  0.6202E+02
    -11.555  0.1650E+01  0.6221E+02
    -11.440  0.1032E+02  0.6340E+02
    -11.325  0.1945E+02  0.6563E+02
    -11.211  0.1732E+02  0.6763E+02
    -11.096  0.1588E+02  0.6945E+02
    -10.981  0.9267E+01  0.7053E+02
    -10.866  0.9835E+01  0.7166E+02
    -10.751  0.5838E+01  0.7233E+02
    -10.636  0.1146E+02  0.7365E+02
    -10.521  0.1864E+02  0.7579E+02
    -10.406  0.1960E+02  0.7805E+02
    -10.291  0.1901E+02  0.8023E+02
    -10.176  0.2347E+02  0.8293E+02
    -10.061  0.2169E+02  0.8543E+02
     -9.946  0.3464E+02  0.8941E+02
     -9.831  0.2920E+02  0.9278E+02
     -9.716  0.1300E+02  0.9427E+02
     -9.601  0.1662E+02  0.9619E+02
     -9.486  0.1424E+02  0.9783E+02
     -9.371  0.1076E+02  0.9907E+02
     -9.256  0.2823E+02  0.1023E+03
     -9.141  0.3817E+02  0.1067E+03
     -9.026  0.2793E+02  0.1099E+03
     -8.911  0.2194E+02  0.1124E+03
     -8.796  0.2853E+02  0.1157E+03
     -8.681  0.1974E+02  0.1180E+03
     -8.566  0.1551E+02  0.1198E+03
     -8.451  0.1478E+02  0.1215E+03
     -8.336  0.7989E+01  0.1224E+03
     -8.221  0.1518E+02  0.1242E+03
     -8.106  0.1297E+02  0.1257E+03
     -7.991  0.3674E+01  0.1261E+03
     -7.877  0.6163E+01  0.1268E+03
     -7.762  0.1124E+02  0.1281E+03
     -7.647  0.1380E+02  0.1297E+03
     -7.532  0.1916E+02  0.1319E+03
     -7.417  0.2231E+02  0.1344E+03
     -7.302  0.2949E+02  0.1378E+03
     -7.187  0.3051E+02  0.1413E+03
     -7.072  0.2680E+02  0.1444E+03
     -6.957  0.2690E+02  0.1475E+03
     -6.842  0.2373E+02  0.1503E+03
     -6.727  0.1996E+02  0.1526E+03
     -6.612  0.1713E+02  0.1545E+03
     -6.497  0.1698E+02  0.1565E+03
     -6.382  0.1508E+02  0.1582E+03
     -6.267  0.1816E+02  0.1603E+03
     -6.152  0.2925E+02  0.1637E+03
     -6.037  0.3215E+02  0.1674E+03
     -5.922  0.2602E+02  0.1704E+03
     -5.807  0.1940E+02  0.1726E+03
     -5.692  0.1851E+02  0.1747E+03
     -5.577  0.1770E+02  0.1768E+03
     -5.462  0.2376E+02  0.1795E+03
     -5.347  0.2593E+02  0.1825E+03
     -5.232  0.1350E+02  0.1841E+03
     -5.117  0.1527E+02  0.1858E+03
     -5.002  0.2321E+02  0.1885E+03
     -4.887  0.1508E+02  0.1902E+03
     -4.772  0.2010E+02  0.1925E+03
     -4.658  0.3057E+02  0.1961E+03
     -4.543  0.3590E+02  0.2002E+03
     -4.428  0.4655E+02  0.2055E+03
     -4.313  0.4565E+02  0.2108E+03
     -4.198  0.4026E+02  0.2154E+03
     -4.083  0.4827E+02  0.2210E+03
     -3.968  0.5248E+02  0.2270E+03
     -3.853  0.4625E+02  0.2323E+03
     -3.738  0.3940E+02  0.2369E+03
     -3.623  0.3189E+02  0.2406E+03
     -3.508  0.2791E+02  0.2438E+03
     -3.393  0.1562E+02  0.2456E+03
     -3.278  0.4616E+01  0.2461E+03
     -3.163  0.7026E+01  0.2469E+03
     -3.048  0.7538E+01  0.2478E+03
     -2.933  0.1618E+01  0.2480E+03
     -2.818  0.1810E+00  0.2480E+03
     -2.703  0.0000E+00  0.2480E+03
     -2.588  0.0000E+00  0.2480E+03
     -2.473  0.0000E+00  0.2480E+03
     -2.358  0.0000E+00  0.2480E+03
     -2.243  0.0000E+00  0.2480E+03
     -2.128  0.0000E+00  0.2480E+03
     -2.013  0.0000E+00  0.2480E+03
     -1.898  0.0000E+00  0.2480E+03
     -1.783  0.0000E+00  0.2480E+03
     -1.668  0.0000E+00  0.2480E+03
     -1.553  0.0000E+00  0.2480E+03
     -1.438  0.0000E+00  0.2480E+03
     -1.324  0.0000E+00  0.2480E+03
     -1.209  0.0000E+00  0.2480E+03
     -1.094  0.0000E+00  0.2480E+03
     -0.979  0.0000E+00  0.2480E+03
     -0.864  0.0000E+00  0.2480E+03
     -0.749  0.0000E+00  0.2480E+03
     -0.634  0.0000E+00  0.2480E+03
     -0.519  0.0000E+00  0.2480E+03
     -0.404  0.0000E+00  0.2480E+03
     -0.289  0.0000E+00  0.2480E+03
     -0.174  0.0000E+00  0.2480E+03
     -0.059  0.0000E+00  0.2480E+03
      0.056  0.4989E-05  0.2480E+03
      0.171  0.1991E-03  0.2480E+03
      0.286  0.2244E-02  0.2480E+03
      0.401  0.2234E-01  0.2480E+03
      0.516  0.1920E+00  0.2480E+03
      0.631  0.9664E+00  0.2481E+03
      0.746  0.2509E+01  0.2484E+03
      0.861  0.4574E+01  0.2490E+03
      0.976  0.5309E+01  0.2496E+03
      1.091  0.3028E+01  0.2499E+03
      1.206  0.7028E+00  0.2500E+03
      1.321  0.1644E+00  0.2500E+03
      1.436  0.6288E+00  0.2501E+03
      1.551  0.2567E+01  0.2504E+03
      1.666  0.5789E+01  0.2510E+03
      1.781  0.5739E+01  0.2517E+03
      1.896  0.3656E+01  0.2521E+03
      2.010  0.5127E+01  0.2527E+03
      2.125  0.6870E+01  0.2535E+03
      2.240  0.5603E+01  0.2542E+03
      2.355  0.6009E+01  0.2548E+03
      2.470  0.6852E+01  0.2556E+03
      2.585  0.6485E+01  0.2564E+03
      2.700  0.6516E+01  0.2571E+03
      2.815  0.7244E+01  0.2580E+03
      2.930  0.7913E+01  0.2589E+03
      3.045  0.9044E+01  0.2599E+03
      3.160  0.8496E+01  0.2609E+03
      3.275  0.8684E+01  0.2619E+03
      3.390  0.8698E+01  0.2629E+03
      3.505  0.1013E+02  0.2641E+03
      3.620  0.1145E+02  0.2654E+03
      3.735  0.1182E+02  0.2667E+03
      3.850  0.1166E+02  0.2681E+03
      3.965  0.1293E+02  0.2696E+03
      4.080  0.1353E+02  0.2711E+03
      4.195  0.1342E+02  0.2727E+03
      4.310  0.1297E+02  0.2742E+03
      4.425  0.1376E+02  0.2757E+03
      4.540  0.1452E+02  0.2774E+03
      4.655  0.1448E+02  0.2791E+03
      4.770  0.1484E+02  0.2808E+03
      4.885  0.1553E+02  0.2826E+03
      5.000  0.1651E+02  0.2845E+03
      5.115  0.1664E+02  0.2864E+03
      5.229  0.1729E+02  0.2884E+03
      5.344  0.1853E+02  0.2905E+03
      5.459  0.1860E+02  0.2927E+03
      5.574  0.1953E+02  0.2949E+03
      5.689  0.2243E+02  0.2975E+03
      5.804  0.2413E+02  0.3003E+03
      5.919  0.2417E+02  0.3030E+03
      6.034  0.2479E+02  0.3059E+03
      6.149  0.2578E+02  0.3089E+03
      6.264  0.2613E+02  0.3119E+03
      6.379  0.2669E+02  0.3149E+03
      6.494  0.2678E+02  0.3180E+03
      6.609  0.2678E+02  0.3211E+03
      6.724  0.2523E+02  0.3240E+03
      6.839  0.2443E+02  0.3268E+03
      6.954  0.2444E+02  0.3296E+03
      7.069  0.2283E+02  0.3323E+03
      7.184  0.2139E+02  0.3347E+03
      7.299  0.2003E+02  0.3370E+03
      7.414  0.1765E+02  0.3391E+03
      7.529  0.1484E+02  0.3408E+03
      7.644  0.1227E+02  0.3422E+03
      7.759  0.9242E+01  0.3433E+03
      7.874  0.4678E+01  0.3438E+03
      7.989  0.1386E+01  0.3440E+03
      8.104  0.2800E+00  0.3440E+03
      8.219  0.3307E-01  0.3440E+03
      8.334  0.2412E-02  0.3440E+03
      8.449  0.0000E+00  0.3440E+03
      8.563  0.0000E+00  0.3440E+03
      8.678  0.0000E+00  0.3440E+03
      8.793  0.0000E+00  0.3440E+03
      8.908  0.0000E+00  0.3440E+03
      9.023  0.0000E+00  0.3440E+03
      9.138  0.0000E+00  0.3440E+03
      9.253  0.0000E+00  0.3440E+03
      9.368  0.0000E+00  0.3440E+03
      9.483  0.0000E+00  0.3440E+03
      9.598  0.0000E+00  0.3440E+03
