  93  93   0   0
  0.1016658E+02  0.9814900E-09  0.9814900E-09  0.9814900E-09  0.5000000E-15
  1.000000000000000E-004
  CAR 
 ice                                     
      9.84026443    -25.00498410  301     -1.89085581      1.00000000
    -25.005  0.0000E+00  0.0000E+00
    -24.889  0.0000E+00  0.0000E+00
    -24.773  0.0000E+00  0.0000E+00
    -24.657  0.0000E+00  0.0000E+00
    -24.540  0.0000E+00  0.0000E+00
    -24.424  0.0000E+00  0.0000E+00
    -24.308  0.0000E+00  0.0000E+00
    -24.192  0.0000E+00  0.0000E+00
    -24.076  0.0000E+00  0.0000E+00
    -23.960  0.0000E+00  0.0000E+00
    -23.843  0.3645E-02  0.4233E-03
    -23.727  0.3840E-01  0.4884E-02
    -23.611  0.3853E+00  0.4964E-01
    -23.495  0.3402E+01  0.4448E+00
    -23.379  0.1566E+02  0.2264E+01
    -23.263  0.2919E+02  0.5654E+01
    -23.147  0.2776E+02  0.8878E+01
    -23.030  0.9019E+01  0.9926E+01
    -22.914  0.5382E+01  0.1056E+02
    -22.798  0.1997E+02  0.1288E+02
    -22.682  0.2256E+02  0.1551E+02
    -22.566  0.1419E+02  0.1715E+02
    -22.450  0.1954E+02  0.1942E+02
    -22.334  0.2575E+02  0.2242E+02
    -22.217  0.1533E+02  0.2420E+02
    -22.101  0.1637E+02  0.2611E+02
    -21.985  0.2460E+02  0.2897E+02
    -21.869  0.3194E+02  0.3268E+02
    -21.753  0.2556E+02  0.3565E+02
    -21.637  0.1591E+02  0.3750E+02
    -21.520  0.1453E+02  0.3919E+02
    -21.404  0.1875E+02  0.4138E+02
    -21.288  0.3730E+02  0.4571E+02
    -21.172  0.3220E+02  0.4945E+02
    -21.056  0.2391E+02  0.5223E+02
    -20.940  0.1822E+02  0.5435E+02
    -20.824  0.1312E+02  0.5588E+02
    -20.707  0.1033E+02  0.5709E+02
    -20.591  0.6931E+01  0.5789E+02
    -20.475  0.3782E+01  0.5834E+02
    -20.359  0.8891E+01  0.5937E+02
    -20.243  0.4682E+01  0.5992E+02
    -20.127  0.7535E+00  0.6000E+02
    -20.010  0.9224E+00  0.6011E+02
    -19.894  0.5489E+01  0.6075E+02
    -19.778  0.8352E+01  0.6172E+02
    -19.662  0.2153E+01  0.6197E+02
    -19.546  0.2451E+00  0.6200E+02
    -19.430  0.0000E+00  0.6200E+02
    -19.314  0.0000E+00  0.6200E+02
    -19.197  0.0000E+00  0.6200E+02
    -19.081  0.0000E+00  0.6200E+02
    -18.965  0.0000E+00  0.6200E+02
    -18.849  0.0000E+00  0.6200E+02
    -18.733  0.0000E+00  0.6200E+02
    -18.617  0.0000E+00  0.6200E+02
    -18.501  0.0000E+00  0.6200E+02
    -18.384  0.0000E+00  0.6200E+02
    -18.268  0.0000E+00  0.6200E+02
    -18.152  0.0000E+00  0.6200E+02
    -18.036  0.0000E+00  0.6200E+02
    -17.920  0.0000E+00  0.6200E+02
    -17.804  0.0000E+00  0.6200E+02
    -17.687  0.0000E+00  0.6200E+02
    -17.571  0.0000E+00  0.6200E+02
    -17.455  0.0000E+00  0.6200E+02
    -17.339  0.0000E+00  0.6200E+02
    -17.223  0.0000E+00  0.6200E+02
    -17.107  0.0000E+00  0.6200E+02
    -16.991  0.0000E+00  0.6200E+02
    -16.874  0.0000E+00  0.6200E+02
    -16.758  0.0000E+00  0.6200E+02
    -16.642  0.0000E+00  0.6200E+02
    -16.526  0.0000E+00  0.6200E+02
    -16.410  0.0000E+00  0.6200E+02
    -16.294  0.0000E+00  0.6200E+02
    -16.178  0.0000E+00  0.6200E+02
    -16.061  0.0000E+00  0.6200E+02
    -15.945  0.0000E+00  0.6200E+02
    -15.829  0.0000E+00  0.6200E+02
    -15.713  0.0000E+00  0.6200E+02
    -15.597  0.0000E+00  0.6200E+02
    -15.481  0.0000E+00  0.6200E+02
    -15.364  0.0000E+00  0.6200E+02
    -15.248  0.0000E+00  0.6200E+02
    -15.132  0.0000E+00  0.6200E+02
    -15.016  0.0000E+00  0.6200E+02
    -14.900  0.0000E+00  0.6200E+02
    -14.784  0.0000E+00  0.6200E+02
    -14.668  0.0000E+00  0.6200E+02
    -14.551  0.0000E+00  0.6200E+02
    -14.435  0.0000E+00  0.6200E+02
    -14.319  0.0000E+00  0.6200E+02
    -14.203  0.0000E+00  0.6200E+02
    -14.087  0.0000E+00  0.6200E+02
    -13.971  0.0000E+00  0.6200E+02
    -13.855  0.0000E+00  0.6200E+02
    -13.738  0.0000E+00  0.6200E+02
    -13.622  0.0000E+00  0.6200E+02
    -13.506  0.0000E+00  0.6200E+02
    -13.390  0.0000E+00  0.6200E+02
    -13.274  0.0000E+00  0.6200E+02
    -13.158  0.0000E+00  0.6200E+02
    -13.041  0.0000E+00  0.6200E+02
    -12.925  0.0000E+00  0.6200E+02
    -12.809  0.0000E+00  0.6200E+02
    -12.693  0.0000E+00  0.6200E+02
    -12.577  0.0000E+00  0.6200E+02
    -12.461  0.0000E+00  0.6200E+02
    -12.345  0.0000E+00  0.6200E+02
    -12.228  0.0000E+00  0.6200E+02
    -12.112  0.0000E+00  0.6200E+02
    -11.996  0.4695E-02  0.6200E+02
    -11.880  0.4314E-01  0.6201E+02
    -11.764  0.4344E+00  0.6206E+02
    -11.648  0.3723E+01  0.6249E+02
    -11.531  0.1447E+02  0.6417E+02
    -11.415  0.1472E+02  0.6588E+02
    -11.299  0.1093E+02  0.6715E+02
    -11.183  0.6423E+01  0.6789E+02
    -11.067  0.2701E+01  0.6821E+02
    -10.951  0.1067E+02  0.6945E+02
    -10.835  0.2274E+02  0.7209E+02
    -10.718  0.1539E+02  0.7388E+02
    -10.602  0.1349E+02  0.7545E+02
    -10.486  0.2683E+02  0.7857E+02
    -10.370  0.2469E+02  0.8144E+02
    -10.254  0.2252E+02  0.8405E+02
    -10.138  0.2719E+02  0.8722E+02
    -10.022  0.2406E+02  0.9002E+02
     -9.905  0.1609E+02  0.9189E+02
     -9.789  0.1700E+02  0.9387E+02
     -9.673  0.2821E+02  0.9715E+02
     -9.557  0.3105E+02  0.1008E+03
     -9.441  0.1635E+02  0.1027E+03
     -9.325  0.1549E+02  0.1045E+03
     -9.208  0.1405E+02  0.1061E+03
     -9.092  0.1910E+02  0.1083E+03
     -8.976  0.2225E+02  0.1109E+03
     -8.860  0.1102E+02  0.1122E+03
     -8.744  0.1339E+02  0.1138E+03
     -8.628  0.2042E+02  0.1161E+03
     -8.512  0.1480E+02  0.1178E+03
     -8.395  0.1024E+02  0.1190E+03
     -8.279  0.1152E+02  0.1204E+03
     -8.163  0.1160E+02  0.1217E+03
     -8.047  0.1151E+02  0.1231E+03
     -7.931  0.1766E+02  0.1251E+03
     -7.815  0.1944E+02  0.1274E+03
     -7.699  0.2262E+02  0.1300E+03
     -7.582  0.2072E+02  0.1324E+03
     -7.466  0.2006E+02  0.1347E+03
     -7.350  0.2365E+02  0.1375E+03
     -7.234  0.2341E+02  0.1402E+03
     -7.118  0.1857E+02  0.1424E+03
     -7.002  0.1877E+02  0.1446E+03
     -6.885  0.1793E+02  0.1467E+03
     -6.769  0.2323E+02  0.1494E+03
     -6.653  0.2881E+02  0.1527E+03
     -6.537  0.2513E+02  0.1556E+03
     -6.421  0.2061E+02  0.1580E+03
     -6.305  0.2420E+02  0.1608E+03
     -6.189  0.2510E+02  0.1638E+03
     -6.072  0.2155E+02  0.1663E+03
     -5.956  0.2073E+02  0.1687E+03
     -5.840  0.2166E+02  0.1712E+03
     -5.724  0.2243E+02  0.1738E+03
     -5.608  0.2364E+02  0.1766E+03
     -5.492  0.2203E+02  0.1791E+03
     -5.375  0.2292E+02  0.1818E+03
     -5.259  0.2205E+02  0.1843E+03
     -5.143  0.1520E+02  0.1861E+03
     -5.027  0.1903E+02  0.1883E+03
     -4.911  0.3073E+02  0.1919E+03
     -4.795  0.2488E+02  0.1948E+03
     -4.679  0.2230E+02  0.1974E+03
     -4.562  0.2581E+02  0.2004E+03
     -4.446  0.4582E+02  0.2057E+03
     -4.330  0.5246E+02  0.2118E+03
     -4.214  0.5592E+02  0.2183E+03
     -4.098  0.5574E+02  0.2248E+03
     -3.982  0.3717E+02  0.2291E+03
     -3.866  0.3017E+02  0.2326E+03
     -3.749  0.2413E+02  0.2354E+03
     -3.633  0.1901E+02  0.2376E+03
     -3.517  0.1992E+02  0.2400E+03
     -3.401  0.1920E+02  0.2422E+03
     -3.285  0.1776E+02  0.2443E+03
     -3.169  0.1737E+02  0.2463E+03
     -3.052  0.1158E+02  0.2476E+03
     -2.936  0.2807E+01  0.2480E+03
     -2.820  0.2946E+00  0.2480E+03
     -2.704  0.0000E+00  0.2480E+03
     -2.588  0.0000E+00  0.2480E+03
     -2.472  0.0000E+00  0.2480E+03
     -2.356  0.0000E+00  0.2480E+03
     -2.239  0.0000E+00  0.2480E+03
     -2.123  0.0000E+00  0.2480E+03
     -2.007  0.0000E+00  0.2480E+03
     -1.891  0.0000E+00  0.2480E+03
     -1.775  0.0000E+00  0.2480E+03
     -1.659  0.0000E+00  0.2480E+03
     -1.543  0.0000E+00  0.2480E+03
     -1.426  0.0000E+00  0.2480E+03
     -1.310  0.0000E+00  0.2480E+03
     -1.194  0.0000E+00  0.2480E+03
     -1.078  0.0000E+00  0.2480E+03
     -0.962  0.0000E+00  0.2480E+03
     -0.846  0.0000E+00  0.2480E+03
     -0.729  0.0000E+00  0.2480E+03
     -0.613  0.0000E+00  0.2480E+03
     -0.497  0.0000E+00  0.2480E+03
     -0.381  0.0000E+00  0.2480E+03
     -0.265  0.0000E+00  0.2480E+03
     -0.149  0.0000E+00  0.2480E+03
     -0.033  0.0000E+00  0.2480E+03
      0.084  0.0000E+00  0.2480E+03
      0.200  0.3050E-04  0.2480E+03
      0.316  0.4601E-03  0.2480E+03
      0.432  0.4839E-02  0.2480E+03
      0.548  0.4727E-01  0.2480E+03
      0.664  0.3411E+00  0.2480E+03
      0.780  0.1171E+01  0.2482E+03
      0.897  0.2294E+01  0.2484E+03
      1.013  0.3710E+01  0.2489E+03
      1.129  0.4610E+01  0.2494E+03
      1.245  0.3607E+01  0.2498E+03
      1.361  0.1695E+01  0.2500E+03
      1.477  0.2018E+01  0.2503E+03
      1.594  0.4406E+01  0.2508E+03
      1.710  0.6036E+01  0.2515E+03
      1.826  0.3863E+01  0.2519E+03
      1.942  0.2462E+01  0.2522E+03
      2.058  0.3951E+01  0.2527E+03
      2.174  0.5103E+01  0.2533E+03
      2.290  0.5827E+01  0.2539E+03
      2.407  0.6481E+01  0.2547E+03
      2.523  0.6751E+01  0.2555E+03
      2.639  0.7376E+01  0.2563E+03
      2.755  0.8250E+01  0.2573E+03
      2.871  0.9004E+01  0.2583E+03
      2.987  0.8330E+01  0.2593E+03
      3.104  0.7786E+01  0.2602E+03
      3.220  0.7858E+01  0.2611E+03
      3.336  0.9411E+01  0.2622E+03
      3.452  0.9556E+01  0.2633E+03
      3.568  0.9388E+01  0.2644E+03
      3.684  0.1023E+02  0.2656E+03
      3.800  0.1215E+02  0.2670E+03
      3.917  0.1280E+02  0.2685E+03
      4.033  0.1296E+02  0.2700E+03
      4.149  0.1257E+02  0.2715E+03
      4.265  0.1325E+02  0.2730E+03
      4.381  0.1439E+02  0.2747E+03
      4.497  0.1443E+02  0.2764E+03
      4.613  0.1447E+02  0.2781E+03
      4.730  0.1584E+02  0.2799E+03
      4.846  0.1692E+02  0.2819E+03
      4.962  0.1694E+02  0.2838E+03
      5.078  0.1684E+02  0.2858E+03
      5.194  0.1845E+02  0.2880E+03
      5.310  0.2037E+02  0.2903E+03
      5.427  0.2003E+02  0.2926E+03
      5.543  0.2060E+02  0.2950E+03
      5.659  0.2191E+02  0.2976E+03
      5.775  0.2151E+02  0.3001E+03
      5.891  0.2145E+02  0.3026E+03
      6.007  0.2332E+02  0.3053E+03
      6.123  0.2524E+02  0.3082E+03
      6.240  0.2547E+02  0.3112E+03
      6.356  0.2516E+02  0.3141E+03
      6.472  0.2594E+02  0.3171E+03
      6.588  0.2660E+02  0.3202E+03
      6.704  0.2489E+02  0.3231E+03
      6.820  0.2374E+02  0.3259E+03
      6.936  0.2230E+02  0.3285E+03
      7.053  0.2092E+02  0.3309E+03
      7.169  0.1979E+02  0.3332E+03
      7.285  0.1903E+02  0.3354E+03
      7.401  0.1868E+02  0.3376E+03
      7.517  0.1662E+02  0.3395E+03
      7.633  0.1434E+02  0.3412E+03
      7.750  0.1160E+02  0.3426E+03
      7.866  0.7723E+01  0.3435E+03
      7.982  0.3470E+01  0.3439E+03
      8.098  0.9282E+00  0.3440E+03
      8.214  0.1719E+00  0.3440E+03
      8.330  0.3368E-01  0.3440E+03
      8.446  0.6614E-02  0.3440E+03
      8.563  0.6774E-03  0.3440E+03
      8.679  0.0000E+00  0.3440E+03
      8.795  0.0000E+00  0.3440E+03
      8.911  0.0000E+00  0.3440E+03
      9.027  0.0000E+00  0.3440E+03
      9.143  0.0000E+00  0.3440E+03
      9.260  0.0000E+00  0.3440E+03
      9.376  0.0000E+00  0.3440E+03
      9.492  0.0000E+00  0.3440E+03
      9.608  0.0000E+00  0.3440E+03
      9.724  0.0000E+00  0.3440E+03
      9.840  0.0000E+00  0.3440E+03
