       N       E                     dE             d eps       ncg     rms          rms(c)
RMM:   1     0.332399657065E+04    0.33240E+04   -0.74379E+04 86688   0.878E+02
RMM:   2     0.105234429834E+04   -0.22717E+04   -0.24387E+04 86688   0.253E+02
RMM:   3     0.877092678303E+02   -0.96464E+03   -0.10265E+04 86688   0.187E+02
RMM:   4    -0.343947565052E+03   -0.43166E+03   -0.36736E+03 86688   0.130E+02
RMM:   5    -0.451607327472E+03   -0.10766E+03   -0.97871E+02 86688   0.685E+01
RMM:   6    -0.479238250400E+03   -0.27631E+02   -0.25200E+02 86688   0.354E+01
RMM:   7    -0.486558133179E+03   -0.73199E+01   -0.70078E+01 86688   0.180E+01
RMM:   8    -0.488750068046E+03   -0.21919E+01   -0.20647E+01 86688   0.959E+00
RMM:   9    -0.489608902985E+03   -0.85883E+00   -0.84314E+00221700   0.508E+00
RMM:  10    -0.489726735131E+03   -0.11783E+00   -0.11099E+00234958   0.147E+00
RMM:  11    -0.489728998602E+03   -0.22635E-02   -0.38255E-02221808   0.315E-01
RMM:  12    -0.489729628386E+03   -0.62978E-03   -0.61784E-03222784   0.816E-02    0.397E+01
RMM:  13    -0.448289174986E+03    0.41440E+02   -0.14637E+02208414   0.243E+01    0.152E+01
RMM:  14    -0.447038620306E+03    0.12506E+01   -0.54592E+00217652   0.419E+00    0.961E+00
RMM:  15    -0.446533434099E+03    0.50519E+00   -0.16026E+00214621   0.351E+00    0.129E+00
RMM:  16    -0.446494149514E+03    0.39285E-01   -0.24687E-01221637   0.886E-01    0.516E-01
RMM:  17    -0.446507066011E+03   -0.12916E-01   -0.52298E-02207743   0.433E-01    0.366E-01
RMM:  18    -0.446504640111E+03    0.24259E-02   -0.11075E-02215645   0.247E-01    0.689E-02
RMM:  19    -0.446504301236E+03    0.33888E-03   -0.11520E-03218801   0.643E-02    0.268E-02
RMM:  20    -0.446504224265E+03    0.76971E-04   -0.26547E-04219273   0.277E-02    0.151E-02
RMM:  21    -0.446504204303E+03    0.19962E-04   -0.82628E-05219797   0.162E-02    0.113E-02
RMM:  22    -0.446504197390E+03    0.69127E-05   -0.23061E-05217619   0.911E-03    0.320E-03
RMM:  23    -0.446504196669E+03    0.72139E-06   -0.20428E-06167059   0.269E-03
   1 F= -.44955949E+03 E0= -.44955949E+03  d E =-.467366E-10
