  93  93   0   0
  0.1016658E+02  0.9814900E-09  0.9814900E-09  0.9814900E-09  0.5000000E-15
  1.000000000000000E-004
  CAR 
 ice                                     
      9.74367129    -25.29177181  301     -1.81791088      1.00000000
    -25.292  0.0000E+00  0.0000E+00
    -25.175  0.0000E+00  0.0000E+00
    -25.058  0.0000E+00  0.0000E+00
    -24.941  0.0000E+00  0.0000E+00
    -24.825  0.0000E+00  0.0000E+00
    -24.708  0.0000E+00  0.0000E+00
    -24.591  0.0000E+00  0.0000E+00
    -24.474  0.0000E+00  0.0000E+00
    -24.357  0.0000E+00  0.0000E+00
    -24.241  0.0000E+00  0.0000E+00
    -24.124  0.3341E-02  0.3902E-03
    -24.007  0.3113E-01  0.4026E-02
    -23.890  0.3197E+00  0.4136E-01
    -23.774  0.2727E+01  0.3599E+00
    -23.657  0.9194E+01  0.1434E+01
    -23.540  0.7932E+01  0.2360E+01
    -23.423  0.9786E+01  0.3503E+01
    -23.306  0.5505E+01  0.4146E+01
    -23.190  0.1171E+02  0.5514E+01
    -23.073  0.2761E+02  0.8744E+01
    -22.956  0.2448E+02  0.1160E+02
    -22.839  0.1602E+02  0.1347E+02
    -22.723  0.1211E+02  0.1489E+02
    -22.606  0.1394E+02  0.1653E+02
    -22.489  0.1748E+02  0.1857E+02
    -22.372  0.2461E+02  0.2144E+02
    -22.255  0.2594E+02  0.2448E+02
    -22.139  0.2234E+02  0.2709E+02
    -22.022  0.2010E+02  0.2944E+02
    -21.905  0.1762E+02  0.3150E+02
    -21.788  0.1882E+02  0.3370E+02
    -21.671  0.3336E+02  0.3760E+02
    -21.555  0.2914E+02  0.4100E+02
    -21.438  0.1037E+02  0.4222E+02
    -21.321  0.1168E+02  0.4359E+02
    -21.204  0.1999E+02  0.4593E+02
    -21.088  0.2789E+02  0.4919E+02
    -20.971  0.1725E+02  0.5120E+02
    -20.854  0.1444E+02  0.5289E+02
    -20.737  0.2065E+02  0.5531E+02
    -20.620  0.1837E+02  0.5746E+02
    -20.504  0.6610E+01  0.5823E+02
    -20.387  0.8936E+01  0.5928E+02
    -20.270  0.5250E+01  0.5990E+02
    -20.153  0.7887E+00  0.5999E+02
    -20.036  0.9954E-01  0.6000E+02
    -19.920  0.1978E+00  0.6003E+02
    -19.803  0.1805E+01  0.6024E+02
    -19.686  0.7922E+01  0.6116E+02
    -19.569  0.6061E+01  0.6187E+02
    -19.453  0.1003E+01  0.6199E+02
    -19.336  0.1037E+00  0.6200E+02
    -19.219  0.0000E+00  0.6200E+02
    -19.102  0.0000E+00  0.6200E+02
    -18.985  0.0000E+00  0.6200E+02
    -18.869  0.0000E+00  0.6200E+02
    -18.752  0.0000E+00  0.6200E+02
    -18.635  0.0000E+00  0.6200E+02
    -18.518  0.0000E+00  0.6200E+02
    -18.401  0.0000E+00  0.6200E+02
    -18.285  0.0000E+00  0.6200E+02
    -18.168  0.0000E+00  0.6200E+02
    -18.051  0.0000E+00  0.6200E+02
    -17.934  0.0000E+00  0.6200E+02
    -17.818  0.0000E+00  0.6200E+02
    -17.701  0.0000E+00  0.6200E+02
    -17.584  0.0000E+00  0.6200E+02
    -17.467  0.0000E+00  0.6200E+02
    -17.350  0.0000E+00  0.6200E+02
    -17.234  0.0000E+00  0.6200E+02
    -17.117  0.0000E+00  0.6200E+02
    -17.000  0.0000E+00  0.6200E+02
    -16.883  0.0000E+00  0.6200E+02
    -16.766  0.0000E+00  0.6200E+02
    -16.650  0.0000E+00  0.6200E+02
    -16.533  0.0000E+00  0.6200E+02
    -16.416  0.0000E+00  0.6200E+02
    -16.299  0.0000E+00  0.6200E+02
    -16.183  0.0000E+00  0.6200E+02
    -16.066  0.0000E+00  0.6200E+02
    -15.949  0.0000E+00  0.6200E+02
    -15.832  0.0000E+00  0.6200E+02
    -15.715  0.0000E+00  0.6200E+02
    -15.599  0.0000E+00  0.6200E+02
    -15.482  0.0000E+00  0.6200E+02
    -15.365  0.0000E+00  0.6200E+02
    -15.248  0.0000E+00  0.6200E+02
    -15.131  0.0000E+00  0.6200E+02
    -15.015  0.0000E+00  0.6200E+02
    -14.898  0.0000E+00  0.6200E+02
    -14.781  0.0000E+00  0.6200E+02
    -14.664  0.0000E+00  0.6200E+02
    -14.548  0.0000E+00  0.6200E+02
    -14.431  0.0000E+00  0.6200E+02
    -14.314  0.0000E+00  0.6200E+02
    -14.197  0.0000E+00  0.6200E+02
    -14.080  0.0000E+00  0.6200E+02
    -13.964  0.0000E+00  0.6200E+02
    -13.847  0.0000E+00  0.6200E+02
    -13.730  0.0000E+00  0.6200E+02
    -13.613  0.0000E+00  0.6200E+02
    -13.497  0.0000E+00  0.6200E+02
    -13.380  0.0000E+00  0.6200E+02
    -13.263  0.0000E+00  0.6200E+02
    -13.146  0.0000E+00  0.6200E+02
    -13.029  0.0000E+00  0.6200E+02
    -12.913  0.0000E+00  0.6200E+02
    -12.796  0.0000E+00  0.6200E+02
    -12.679  0.0000E+00  0.6200E+02
    -12.562  0.0000E+00  0.6200E+02
    -12.445  0.6129E-03  0.6200E+02
    -12.329  0.5720E-02  0.6200E+02
    -12.212  0.5891E-01  0.6201E+02
    -12.095  0.5860E+00  0.6208E+02
    -11.978  0.4316E+01  0.6258E+02
    -11.862  0.8882E+01  0.6362E+02
    -11.745  0.2921E+01  0.6396E+02
    -11.628  0.6195E+00  0.6403E+02
    -11.511  0.2575E+01  0.6434E+02
    -11.394  0.1373E+02  0.6594E+02
    -11.278  0.1807E+02  0.6805E+02
    -11.161  0.1240E+02  0.6950E+02
    -11.044  0.6500E+01  0.7026E+02
    -10.927  0.9338E+01  0.7135E+02
    -10.810  0.7313E+01  0.7221E+02
    -10.694  0.1386E+02  0.7383E+02
    -10.577  0.2434E+02  0.7667E+02
    -10.460  0.1665E+02  0.7862E+02
    -10.343  0.1716E+02  0.8062E+02
    -10.227  0.1559E+02  0.8245E+02
    -10.110  0.1672E+02  0.8440E+02
     -9.993  0.1697E+02  0.8639E+02
     -9.876  0.1746E+02  0.8843E+02
     -9.759  0.2757E+02  0.9165E+02
     -9.643  0.2987E+02  0.9514E+02
     -9.526  0.2807E+02  0.9843E+02
     -9.409  0.2191E+02  0.1010E+03
     -9.292  0.1718E+02  0.1030E+03
     -9.175  0.1740E+02  0.1050E+03
     -9.059  0.2179E+02  0.1076E+03
     -8.942  0.2614E+02  0.1106E+03
     -8.825  0.1472E+02  0.1124E+03
     -8.708  0.2010E+02  0.1147E+03
     -8.592  0.2919E+02  0.1181E+03
     -8.475  0.2551E+02  0.1211E+03
     -8.358  0.1567E+02  0.1229E+03
     -8.241  0.1199E+02  0.1243E+03
     -8.124  0.1262E+02  0.1258E+03
     -8.008  0.1267E+02  0.1273E+03
     -7.891  0.9220E+01  0.1284E+03
     -7.774  0.1118E+02  0.1297E+03
     -7.657  0.1442E+02  0.1314E+03
     -7.540  0.2306E+02  0.1341E+03
     -7.424  0.1963E+02  0.1364E+03
     -7.307  0.1935E+02  0.1386E+03
     -7.190  0.2198E+02  0.1412E+03
     -7.073  0.2130E+02  0.1437E+03
     -6.957  0.2313E+02  0.1464E+03
     -6.840  0.2445E+02  0.1492E+03
     -6.723  0.2324E+02  0.1520E+03
     -6.606  0.2707E+02  0.1551E+03
     -6.489  0.2588E+02  0.1582E+03
     -6.373  0.2291E+02  0.1608E+03
     -6.256  0.1784E+02  0.1629E+03
     -6.139  0.1748E+02  0.1650E+03
     -6.022  0.2058E+02  0.1674E+03
     -5.905  0.2158E+02  0.1699E+03
     -5.789  0.2256E+02  0.1725E+03
     -5.672  0.2534E+02  0.1755E+03
     -5.555  0.2722E+02  0.1787E+03
     -5.438  0.2448E+02  0.1815E+03
     -5.322  0.1869E+02  0.1837E+03
     -5.205  0.2054E+02  0.1861E+03
     -5.088  0.2166E+02  0.1887E+03
     -4.971  0.2571E+02  0.1917E+03
     -4.854  0.1704E+02  0.1937E+03
     -4.738  0.9397E+01  0.1948E+03
     -4.621  0.1875E+02  0.1970E+03
     -4.504  0.3077E+02  0.2006E+03
     -4.387  0.4733E+02  0.2061E+03
     -4.271  0.5581E+02  0.2126E+03
     -4.154  0.4629E+02  0.2180E+03
     -4.037  0.4462E+02  0.2232E+03
     -3.920  0.4792E+02  0.2288E+03
     -3.803  0.3954E+02  0.2335E+03
     -3.687  0.3497E+02  0.2375E+03
     -3.570  0.2680E+02  0.2407E+03
     -3.453  0.1558E+02  0.2425E+03
     -3.336  0.1207E+02  0.2439E+03
     -3.219  0.1124E+02  0.2452E+03
     -3.103  0.1106E+02  0.2465E+03
     -2.986  0.9616E+01  0.2477E+03
     -2.869  0.2583E+01  0.2480E+03
     -2.752  0.2868E+00  0.2480E+03
     -2.636  0.0000E+00  0.2480E+03
     -2.519  0.0000E+00  0.2480E+03
     -2.402  0.0000E+00  0.2480E+03
     -2.285  0.0000E+00  0.2480E+03
     -2.168  0.0000E+00  0.2480E+03
     -2.052  0.0000E+00  0.2480E+03
     -1.935  0.0000E+00  0.2480E+03
     -1.818  0.0000E+00  0.2480E+03
     -1.701  0.0000E+00  0.2480E+03
     -1.584  0.0000E+00  0.2480E+03
     -1.468  0.0000E+00  0.2480E+03
     -1.351  0.0000E+00  0.2480E+03
     -1.234  0.0000E+00  0.2480E+03
     -1.117  0.0000E+00  0.2480E+03
     -1.001  0.0000E+00  0.2480E+03
     -0.884  0.0000E+00  0.2480E+03
     -0.767  0.0000E+00  0.2480E+03
     -0.650  0.0000E+00  0.2480E+03
     -0.533  0.0000E+00  0.2480E+03
     -0.417  0.0000E+00  0.2480E+03
     -0.300  0.0000E+00  0.2480E+03
     -0.183  0.0000E+00  0.2480E+03
     -0.066  0.5029E-05  0.2480E+03
      0.051  0.2998E-03  0.2480E+03
      0.167  0.3584E-02  0.2480E+03
      0.284  0.3683E-01  0.2480E+03
      0.401  0.3269E+00  0.2480E+03
      0.518  0.1735E+01  0.2482E+03
      0.634  0.4769E+01  0.2488E+03
      0.751  0.6519E+01  0.2496E+03
      0.868  0.3143E+01  0.2499E+03
      0.985  0.5255E+00  0.2500E+03
      1.102  0.5260E-01  0.2500E+03
      1.218  0.8003E-01  0.2500E+03
      1.335  0.6834E+00  0.2501E+03
      1.452  0.3192E+01  0.2505E+03
      1.569  0.6142E+01  0.2512E+03
      1.686  0.5072E+01  0.2518E+03
      1.802  0.2192E+01  0.2520E+03
      1.919  0.1699E+01  0.2522E+03
      2.036  0.2930E+01  0.2526E+03
      2.153  0.5076E+01  0.2532E+03
      2.269  0.5939E+01  0.2539E+03
      2.386  0.5611E+01  0.2545E+03
      2.503  0.6033E+01  0.2552E+03
      2.620  0.6521E+01  0.2560E+03
      2.737  0.6356E+01  0.2567E+03
      2.853  0.6749E+01  0.2575E+03
      2.970  0.7964E+01  0.2584E+03
      3.087  0.9267E+01  0.2595E+03
      3.204  0.9625E+01  0.2607E+03
      3.321  0.9467E+01  0.2618E+03
      3.437  0.8717E+01  0.2628E+03
      3.554  0.9775E+01  0.2639E+03
      3.671  0.1056E+02  0.2652E+03
      3.788  0.1141E+02  0.2665E+03
      3.904  0.1213E+02  0.2679E+03
      4.021  0.1268E+02  0.2694E+03
      4.138  0.1299E+02  0.2709E+03
      4.255  0.1382E+02  0.2725E+03
      4.372  0.1454E+02  0.2742E+03
      4.488  0.1481E+02  0.2760E+03
      4.605  0.1424E+02  0.2776E+03
      4.722  0.1449E+02  0.2793E+03
      4.839  0.1506E+02  0.2811E+03
      4.955  0.1530E+02  0.2829E+03
      5.072  0.1697E+02  0.2849E+03
      5.189  0.1897E+02  0.2871E+03
      5.306  0.1989E+02  0.2894E+03
      5.423  0.2043E+02  0.2918E+03
      5.539  0.2125E+02  0.2943E+03
      5.656  0.2234E+02  0.2969E+03
      5.773  0.2237E+02  0.2995E+03
      5.890  0.2252E+02  0.3021E+03
      6.007  0.2414E+02  0.3050E+03
      6.123  0.2529E+02  0.3079E+03
      6.240  0.2628E+02  0.3110E+03
      6.357  0.2762E+02  0.3142E+03
      6.474  0.2717E+02  0.3174E+03
      6.590  0.2650E+02  0.3205E+03
      6.707  0.2481E+02  0.3234E+03
      6.824  0.2421E+02  0.3262E+03
      6.941  0.2408E+02  0.3290E+03
      7.058  0.2266E+02  0.3317E+03
      7.174  0.2111E+02  0.3342E+03
      7.291  0.1952E+02  0.3364E+03
      7.408  0.1796E+02  0.3385E+03
      7.525  0.1550E+02  0.3404E+03
      7.642  0.1284E+02  0.3419E+03
      7.758  0.9456E+01  0.3430E+03
      7.875  0.5694E+01  0.3436E+03
      7.992  0.2321E+01  0.3439E+03
      8.109  0.6536E+00  0.3440E+03
      8.225  0.1350E+00  0.3440E+03
      8.342  0.1756E-01  0.3440E+03
      8.459  0.1201E-02  0.3440E+03
      8.576  0.0000E+00  0.3440E+03
      8.693  0.0000E+00  0.3440E+03
      8.809  0.0000E+00  0.3440E+03
      8.926  0.0000E+00  0.3440E+03
      9.043  0.0000E+00  0.3440E+03
      9.160  0.0000E+00  0.3440E+03
      9.277  0.0000E+00  0.3440E+03
      9.393  0.0000E+00  0.3440E+03
      9.510  0.0000E+00  0.3440E+03
      9.627  0.0000E+00  0.3440E+03
      9.744  0.0000E+00  0.3440E+03
