Loading vasp/5.4.4-mpi-cuda
  Loading requirement: gcc/8.5.0 intel-compilers/19.0.4 cuda/10.1.1
    intel-mpi/2019.4
 running on   40 total cores
 distrk:  each k-point on   40 cores,    1 groups
 distr:  one band on   20 cores,    2 groups
 using from now: INCAR     
 vasp.5.4.4.18Apr17-6-g9f103f2a35 (build Dec 06 2019 17:20:26) complex          
  
 POSCAR found type information on POSCAR  O  H 
 POSCAR found :  2 types and      93 ions
 scaLAPACK will be used

 ----------------------------------------------------------------------------- 
|                                                                             |
|           W    W    AA    RRRRR   N    N  II  N    N   GGGG   !!!           |
|           W    W   A  A   R    R  NN   N  II  NN   N  G    G  !!!           |
|           W    W  A    A  R    R  N N  N  II  N N  N  G       !!!           |
|           W WW W  AAAAAA  RRRRR   N  N N  II  N  N N  G  GGG   !            |
|           WW  WW  A    A  R   R   N   NN  II  N   NN  G    G                |
|           W    W  A    A  R    R  N    N  II  N    N   GGGG   !!!           |
|                                                                             |
|      For optimal performance we recommend to set                            |
|        NCORE= 4 - approx SQRT( number of cores)                             |
|      NCORE specifies how many cores store one orbital (NPAR=cpu/NCORE).     |
|      This setting can  greatly improve the performance of VASP for DFT.     |
|      The default,   NCORE=1            might be grossly inefficient         |
|      on modern multi-core architectures or massively parallel machines.     |
|      Do your own testing !!!!                                               |
|      Unfortunately you need to use the default for GW and RPA calculations. |
|      (for HF NCORE is supported but not extensively tested yet)             |
|                                                                             |
 ----------------------------------------------------------------------------- 

 LDA part: xc-table for Pade appr. of Perdew
 POSCAR, INCAR and KPOINTS ok, starting setup
 FFT: planning ...
 WAVECAR not read
 WARNING: chargedensity file is incomplete
 WARNING: random wavefunctions but no delay for mixing, default for NELMDL
 entering main loop
       N       E                     dE             d eps       ncg     rms          rms(c)
RMM:   1     0.332341533015E+04    0.33234E+04   -0.74382E+04 86688   0.878E+02
RMM:   2     0.105293047948E+04   -0.22705E+04   -0.24385E+04 86688   0.253E+02
RMM:   3     0.892536259526E+02   -0.96368E+03   -0.10264E+04 86688   0.187E+02
RMM:   4    -0.342754706105E+03   -0.43201E+03   -0.36796E+03 86688   0.130E+02
RMM:   5    -0.450994930234E+03   -0.10824E+03   -0.98315E+02 86688   0.686E+01
RMM:   6    -0.478795465437E+03   -0.27801E+02   -0.25381E+02 86688   0.355E+01
RMM:   7    -0.486184397280E+03   -0.73889E+01   -0.70781E+01 86688   0.181E+01
RMM:   8    -0.488404185178E+03   -0.22198E+01   -0.20931E+01 86688   0.965E+00
RMM:   9    -0.489278752607E+03   -0.87457E+00   -0.85884E+00221627   0.512E+00
RMM:  10    -0.489400122187E+03   -0.12137E+00   -0.11447E+00235606   0.149E+00
RMM:  11    -0.489402344137E+03   -0.22219E-02   -0.38556E-02221808   0.315E-01
RMM:  12    -0.489402984783E+03   -0.64065E-03   -0.62841E-03223098   0.819E-02    0.395E+01
RMM:  13    -0.448280025822E+03    0.41123E+02   -0.14534E+02210314   0.242E+01    0.152E+01
RMM:  14    -0.447025274151E+03    0.12548E+01   -0.54146E+00218081   0.418E+00    0.958E+00
RMM:  15    -0.446495316185E+03    0.52996E+00   -0.15780E+00215673   0.349E+00    0.129E+00
RMM:  16    -0.446452316472E+03    0.43000E-01   -0.25909E-01221250   0.906E-01    0.524E-01
RMM:  17    -0.446461466740E+03   -0.91503E-02   -0.48962E-02209200   0.421E-01    0.342E-01
RMM:  18    -0.446458012965E+03    0.34538E-02   -0.10096E-02217364   0.224E-01    0.917E-02
RMM:  19    -0.446456909489E+03    0.11035E-02   -0.25547E-03218227   0.881E-02    0.396E-02
RMM:  20    -0.446456716546E+03    0.19294E-03   -0.49623E-04219598   0.357E-02    0.217E-02
RMM:  21    -0.446456679045E+03    0.37501E-04   -0.11402E-04219239   0.180E-02    0.100E-02
RMM:  22    -0.446456672804E+03    0.62404E-05   -0.23864E-05210907   0.882E-03    0.391E-03
RMM:  23    -0.446456672392E+03    0.41203E-06   -0.48333E-06189192   0.428E-03
   1 F= -.44954001E+03 E0= -.44954001E+03  d E =-.378357E-10
