  93  93   0   0
  0.1016658E+02  0.9814900E-09  0.9814900E-09  0.9814900E-09  0.5000000E-15
  1.000000000000000E-004
  CAR 
 ice                                     
      9.76955539    -25.17348370  301     -2.11085041      1.00000000
    -25.173  0.0000E+00  0.0000E+00
    -25.057  0.0000E+00  0.0000E+00
    -24.941  0.0000E+00  0.0000E+00
    -24.824  0.0000E+00  0.0000E+00
    -24.708  0.0000E+00  0.0000E+00
    -24.591  0.0000E+00  0.0000E+00
    -24.475  0.0000E+00  0.0000E+00
    -24.358  0.0000E+00  0.0000E+00
    -24.242  0.0000E+00  0.0000E+00
    -24.125  0.0000E+00  0.0000E+00
    -24.009  0.3758E-02  0.4377E-03
    -23.892  0.3840E-01  0.4910E-02
    -23.776  0.3897E+00  0.5031E-01
    -23.659  0.3360E+01  0.4417E+00
    -23.543  0.1333E+02  0.1995E+01
    -23.426  0.1827E+02  0.4123E+01
    -23.310  0.1976E+02  0.6424E+01
    -23.193  0.1164E+02  0.7780E+01
    -23.077  0.4484E+01  0.8308E+01
    -22.960  0.1377E+02  0.9918E+01
    -22.844  0.1555E+02  0.1173E+02
    -22.727  0.1030E+02  0.1293E+02
    -22.611  0.2169E+02  0.1546E+02
    -22.495  0.2925E+02  0.1887E+02
    -22.378  0.3172E+02  0.2256E+02
    -22.262  0.2224E+02  0.2516E+02
    -22.145  0.2093E+02  0.2760E+02
    -22.029  0.2553E+02  0.3058E+02
    -21.912  0.1634E+02  0.3249E+02
    -21.796  0.1836E+02  0.3463E+02
    -21.679  0.2443E+02  0.3748E+02
    -21.563  0.2384E+02  0.4026E+02
    -21.446  0.2037E+02  0.4263E+02
    -21.330  0.1999E+02  0.4496E+02
    -21.213  0.2913E+02  0.4836E+02
    -21.097  0.2319E+02  0.5107E+02
    -20.980  0.1448E+02  0.5276E+02
    -20.864  0.1151E+02  0.5411E+02
    -20.747  0.1522E+02  0.5588E+02
    -20.631  0.1676E+02  0.5783E+02
    -20.514  0.1152E+02  0.5918E+02
    -20.398  0.6020E+01  0.5988E+02
    -20.281  0.9137E+00  0.5999E+02
    -20.165  0.3065E+00  0.6003E+02
    -20.049  0.1927E+01  0.6025E+02
    -19.932  0.8088E+01  0.6119E+02
    -19.816  0.5860E+01  0.6188E+02
    -19.699  0.9492E+00  0.6199E+02
    -19.583  0.9840E-01  0.6200E+02
    -19.466  0.0000E+00  0.6200E+02
    -19.350  0.0000E+00  0.6200E+02
    -19.233  0.0000E+00  0.6200E+02
    -19.117  0.0000E+00  0.6200E+02
    -19.000  0.0000E+00  0.6200E+02
    -18.884  0.0000E+00  0.6200E+02
    -18.767  0.0000E+00  0.6200E+02
    -18.651  0.0000E+00  0.6200E+02
    -18.534  0.0000E+00  0.6200E+02
    -18.418  0.0000E+00  0.6200E+02
    -18.301  0.0000E+00  0.6200E+02
    -18.185  0.0000E+00  0.6200E+02
    -18.068  0.0000E+00  0.6200E+02
    -17.952  0.0000E+00  0.6200E+02
    -17.835  0.0000E+00  0.6200E+02
    -17.719  0.0000E+00  0.6200E+02
    -17.602  0.0000E+00  0.6200E+02
    -17.486  0.0000E+00  0.6200E+02
    -17.370  0.0000E+00  0.6200E+02
    -17.253  0.0000E+00  0.6200E+02
    -17.137  0.0000E+00  0.6200E+02
    -17.020  0.0000E+00  0.6200E+02
    -16.904  0.0000E+00  0.6200E+02
    -16.787  0.0000E+00  0.6200E+02
    -16.671  0.0000E+00  0.6200E+02
    -16.554  0.0000E+00  0.6200E+02
    -16.438  0.0000E+00  0.6200E+02
    -16.321  0.0000E+00  0.6200E+02
    -16.205  0.0000E+00  0.6200E+02
    -16.088  0.0000E+00  0.6200E+02
    -15.972  0.0000E+00  0.6200E+02
    -15.855  0.0000E+00  0.6200E+02
    -15.739  0.0000E+00  0.6200E+02
    -15.622  0.0000E+00  0.6200E+02
    -15.506  0.0000E+00  0.6200E+02
    -15.389  0.0000E+00  0.6200E+02
    -15.273  0.0000E+00  0.6200E+02
    -15.156  0.0000E+00  0.6200E+02
    -15.040  0.0000E+00  0.6200E+02
    -14.924  0.0000E+00  0.6200E+02
    -14.807  0.0000E+00  0.6200E+02
    -14.691  0.0000E+00  0.6200E+02
    -14.574  0.0000E+00  0.6200E+02
    -14.458  0.0000E+00  0.6200E+02
    -14.341  0.0000E+00  0.6200E+02
    -14.225  0.0000E+00  0.6200E+02
    -14.108  0.0000E+00  0.6200E+02
    -13.992  0.0000E+00  0.6200E+02
    -13.875  0.0000E+00  0.6200E+02
    -13.759  0.0000E+00  0.6200E+02
    -13.642  0.0000E+00  0.6200E+02
    -13.526  0.0000E+00  0.6200E+02
    -13.409  0.0000E+00  0.6200E+02
    -13.293  0.0000E+00  0.6200E+02
    -13.176  0.0000E+00  0.6200E+02
    -13.060  0.0000E+00  0.6200E+02
    -12.943  0.0000E+00  0.6200E+02
    -12.827  0.0000E+00  0.6200E+02
    -12.710  0.0000E+00  0.6200E+02
    -12.594  0.0000E+00  0.6200E+02
    -12.478  0.0000E+00  0.6200E+02
    -12.361  0.0000E+00  0.6200E+02
    -12.245  0.0000E+00  0.6200E+02
    -12.128  0.0000E+00  0.6200E+02
    -12.012  0.4858E-02  0.6200E+02
    -11.895  0.4651E-01  0.6201E+02
    -11.779  0.4675E+00  0.6206E+02
    -11.662  0.4046E+01  0.6253E+02
    -11.546  0.1621E+02  0.6442E+02
    -11.429  0.1944E+02  0.6668E+02
    -11.313  0.1001E+02  0.6785E+02
    -11.196  0.5481E+01  0.6849E+02
    -11.080  0.1184E+02  0.6987E+02
    -10.963  0.1305E+02  0.7139E+02
    -10.847  0.1044E+02  0.7261E+02
    -10.730  0.1813E+02  0.7472E+02
    -10.614  0.1783E+02  0.7680E+02
    -10.497  0.1363E+02  0.7839E+02
    -10.381  0.1174E+02  0.7976E+02
    -10.264  0.1213E+02  0.8118E+02
    -10.148  0.2784E+02  0.8442E+02
    -10.032  0.2843E+02  0.8774E+02
     -9.915  0.1695E+02  0.8971E+02
     -9.799  0.1657E+02  0.9165E+02
     -9.682  0.2696E+02  0.9480E+02
     -9.566  0.3228E+02  0.9856E+02
     -9.449  0.2584E+02  0.1016E+03
     -9.333  0.2058E+02  0.1040E+03
     -9.216  0.2301E+02  0.1067E+03
     -9.100  0.2117E+02  0.1091E+03
     -8.983  0.1383E+02  0.1107E+03
     -8.867  0.1271E+02  0.1122E+03
     -8.750  0.1729E+02  0.1143E+03
     -8.634  0.2229E+02  0.1168E+03
     -8.517  0.1051E+02  0.1181E+03
     -8.401  0.1270E+02  0.1196E+03
     -8.284  0.2288E+02  0.1222E+03
     -8.168  0.1459E+02  0.1239E+03
     -8.051  0.1295E+02  0.1254E+03
     -7.935  0.1726E+02  0.1275E+03
     -7.818  0.1347E+02  0.1290E+03
     -7.702  0.1842E+02  0.1312E+03
     -7.585  0.1930E+02  0.1334E+03
     -7.469  0.1622E+02  0.1353E+03
     -7.353  0.2096E+02  0.1378E+03
     -7.236  0.1945E+02  0.1400E+03
     -7.120  0.2085E+02  0.1425E+03
     -7.003  0.2598E+02  0.1455E+03
     -6.887  0.2413E+02  0.1483E+03
     -6.770  0.2716E+02  0.1515E+03
     -6.654  0.2971E+02  0.1549E+03
     -6.537  0.2439E+02  0.1578E+03
     -6.421  0.1660E+02  0.1597E+03
     -6.304  0.1403E+02  0.1614E+03
     -6.188  0.1680E+02  0.1633E+03
     -6.071  0.2055E+02  0.1657E+03
     -5.955  0.2774E+02  0.1689E+03
     -5.838  0.2536E+02  0.1719E+03
     -5.722  0.1883E+02  0.1741E+03
     -5.605  0.2007E+02  0.1764E+03
     -5.489  0.2435E+02  0.1793E+03
     -5.372  0.2696E+02  0.1824E+03
     -5.256  0.1796E+02  0.1845E+03
     -5.139  0.1875E+02  0.1867E+03
     -5.023  0.2667E+02  0.1898E+03
     -4.907  0.1948E+02  0.1921E+03
     -4.790  0.1894E+02  0.1943E+03
     -4.674  0.2819E+02  0.1976E+03
     -4.557  0.2948E+02  0.2010E+03
     -4.441  0.3675E+02  0.2053E+03
     -4.324  0.6182E+02  0.2125E+03
     -4.208  0.6466E+02  0.2200E+03
     -4.091  0.4136E+02  0.2249E+03
     -3.975  0.2554E+02  0.2279E+03
     -3.858  0.3192E+02  0.2316E+03
     -3.742  0.3053E+02  0.2351E+03
     -3.625  0.2544E+02  0.2381E+03
     -3.509  0.2979E+02  0.2416E+03
     -3.392  0.2539E+02  0.2445E+03
     -3.276  0.1987E+02  0.2469E+03
     -3.159  0.8325E+01  0.2478E+03
     -3.043  0.1222E+01  0.2480E+03
     -2.926  0.1071E+00  0.2480E+03
     -2.810  0.0000E+00  0.2480E+03
     -2.693  0.0000E+00  0.2480E+03
     -2.577  0.0000E+00  0.2480E+03
     -2.461  0.0000E+00  0.2480E+03
     -2.344  0.0000E+00  0.2480E+03
     -2.228  0.0000E+00  0.2480E+03
     -2.111  0.0000E+00  0.2480E+03
     -1.995  0.0000E+00  0.2480E+03
     -1.878  0.0000E+00  0.2480E+03
     -1.762  0.0000E+00  0.2480E+03
     -1.645  0.0000E+00  0.2480E+03
     -1.529  0.0000E+00  0.2480E+03
     -1.412  0.0000E+00  0.2480E+03
     -1.296  0.0000E+00  0.2480E+03
     -1.179  0.0000E+00  0.2480E+03
     -1.063  0.0000E+00  0.2480E+03
     -0.946  0.0000E+00  0.2480E+03
     -0.830  0.0000E+00  0.2480E+03
     -0.713  0.0000E+00  0.2480E+03
     -0.597  0.0000E+00  0.2480E+03
     -0.480  0.0000E+00  0.2480E+03
     -0.364  0.0000E+00  0.2480E+03
     -0.247  0.0000E+00  0.2480E+03
     -0.131  0.0000E+00  0.2480E+03
     -0.014  0.0000E+00  0.2480E+03
      0.102  0.0000E+00  0.2480E+03
      0.218  0.0000E+00  0.2480E+03
      0.335  0.2006E-04  0.2480E+03
      0.451  0.3333E-03  0.2480E+03
      0.568  0.3530E-02  0.2480E+03
      0.684  0.3481E-01  0.2480E+03
      0.801  0.2586E+00  0.2480E+03
      0.917  0.9008E+00  0.2481E+03
      1.034  0.1654E+01  0.2483E+03
      1.150  0.2415E+01  0.2486E+03
      1.267  0.3139E+01  0.2490E+03
      1.383  0.3310E+01  0.2494E+03
      1.500  0.3133E+01  0.2497E+03
      1.616  0.3079E+01  0.2501E+03
      1.733  0.3721E+01  0.2505E+03
      1.849  0.4781E+01  0.2511E+03
      1.966  0.4995E+01  0.2517E+03
      2.082  0.4733E+01  0.2522E+03
      2.199  0.5050E+01  0.2528E+03
      2.315  0.5371E+01  0.2534E+03
      2.432  0.6225E+01  0.2542E+03
      2.548  0.7090E+01  0.2550E+03
      2.664  0.7159E+01  0.2558E+03
      2.781  0.7016E+01  0.2566E+03
      2.897  0.7114E+01  0.2575E+03
      3.014  0.7586E+01  0.2584E+03
      3.130  0.7461E+01  0.2592E+03
      3.247  0.8781E+01  0.2602E+03
      3.363  0.9443E+01  0.2613E+03
      3.480  0.9872E+01  0.2625E+03
      3.596  0.9840E+01  0.2636E+03
      3.713  0.1021E+02  0.2648E+03
      3.829  0.1292E+02  0.2663E+03
      3.946  0.1358E+02  0.2679E+03
      4.062  0.1252E+02  0.2694E+03
      4.179  0.1231E+02  0.2708E+03
      4.295  0.1290E+02  0.2723E+03
      4.412  0.1428E+02  0.2740E+03
      4.528  0.1477E+02  0.2757E+03
      4.645  0.1497E+02  0.2775E+03
      4.761  0.1555E+02  0.2793E+03
      4.878  0.1565E+02  0.2811E+03
      4.994  0.1579E+02  0.2829E+03
      5.110  0.1735E+02  0.2850E+03
      5.227  0.1930E+02  0.2872E+03
      5.343  0.2052E+02  0.2896E+03
      5.460  0.2017E+02  0.2920E+03
      5.576  0.2057E+02  0.2944E+03
      5.693  0.2113E+02  0.2968E+03
      5.809  0.2132E+02  0.2993E+03
      5.926  0.2265E+02  0.3019E+03
      6.042  0.2388E+02  0.3047E+03
      6.159  0.2391E+02  0.3075E+03
      6.275  0.2461E+02  0.3104E+03
      6.392  0.2546E+02  0.3134E+03
      6.508  0.2586E+02  0.3164E+03
      6.625  0.2614E+02  0.3194E+03
      6.741  0.2573E+02  0.3224E+03
      6.858  0.2419E+02  0.3252E+03
      6.974  0.2290E+02  0.3279E+03
      7.091  0.2216E+02  0.3305E+03
      7.207  0.2157E+02  0.3330E+03
      7.324  0.2091E+02  0.3355E+03
      7.440  0.1951E+02  0.3377E+03
      7.556  0.1740E+02  0.3398E+03
      7.673  0.1482E+02  0.3415E+03
      7.789  0.1129E+02  0.3428E+03
      7.906  0.6925E+01  0.3436E+03
      8.022  0.2479E+01  0.3439E+03
      8.139  0.5511E+00  0.3440E+03
      8.255  0.1205E+00  0.3440E+03
      8.372  0.1974E-01  0.3440E+03
      8.488  0.1855E-02  0.3440E+03
      8.605  0.0000E+00  0.3440E+03
      8.721  0.0000E+00  0.3440E+03
      8.838  0.0000E+00  0.3440E+03
      8.954  0.0000E+00  0.3440E+03
      9.071  0.0000E+00  0.3440E+03
      9.187  0.0000E+00  0.3440E+03
      9.304  0.0000E+00  0.3440E+03
      9.420  0.0000E+00  0.3440E+03
      9.537  0.0000E+00  0.3440E+03
      9.653  0.0000E+00  0.3440E+03
      9.770  0.0000E+00  0.3440E+03
