  93  93   0   0
  0.1016658E+02  0.9814900E-09  0.9814900E-09  0.9814900E-09  0.5000000E-15
  1.000000000000000E-004
  CAR 
 ice                                     
      9.60977557    -25.14041656  301     -1.51017280      1.00000000
    -25.140  0.0000E+00  0.0000E+00
    -25.025  0.0000E+00  0.0000E+00
    -24.909  0.0000E+00  0.0000E+00
    -24.793  0.0000E+00  0.0000E+00
    -24.677  0.0000E+00  0.0000E+00
    -24.561  0.0000E+00  0.0000E+00
    -24.445  0.0000E+00  0.0000E+00
    -24.330  0.0000E+00  0.0000E+00
    -24.214  0.0000E+00  0.0000E+00
    -24.098  0.0000E+00  0.0000E+00
    -23.982  0.3735E-02  0.4327E-03
    -23.866  0.3407E-01  0.4379E-02
    -23.750  0.3392E+00  0.4367E-01
    -23.635  0.2820E+01  0.3703E+00
    -23.519  0.8995E+01  0.1412E+01
    -23.403  0.6060E+01  0.2114E+01
    -23.287  0.1090E+02  0.3377E+01
    -23.171  0.2223E+02  0.5952E+01
    -23.055  0.1866E+02  0.8114E+01
    -22.940  0.2309E+02  0.1079E+02
    -22.824  0.2699E+02  0.1392E+02
    -22.708  0.2346E+02  0.1665E+02
    -22.592  0.1920E+02  0.1887E+02
    -22.476  0.1420E+02  0.2052E+02
    -22.360  0.2567E+02  0.2350E+02
    -22.245  0.3516E+02  0.2758E+02
    -22.129  0.1804E+02  0.2967E+02
    -22.013  0.6334E+01  0.3040E+02
    -21.897  0.1767E+02  0.3246E+02
    -21.781  0.3020E+02  0.3596E+02
    -21.665  0.2692E+02  0.3907E+02
    -21.550  0.2637E+02  0.4213E+02
    -21.434  0.2686E+02  0.4524E+02
    -21.318  0.2076E+02  0.4765E+02
    -21.202  0.1536E+02  0.4943E+02
    -21.086  0.1219E+02  0.5085E+02
    -20.970  0.9330E+01  0.5193E+02
    -20.855  0.8095E+01  0.5287E+02
    -20.739  0.8520E+01  0.5386E+02
    -20.623  0.6215E+01  0.5458E+02
    -20.507  0.9040E+01  0.5563E+02
    -20.391  0.2905E+01  0.5597E+02
    -20.275  0.1176E+01  0.5610E+02
    -20.160  0.5403E+01  0.5673E+02
    -20.044  0.8443E+01  0.5771E+02
    -19.928  0.2449E+01  0.5800E+02
    -19.812  0.2235E+01  0.5825E+02
    -19.696  0.8472E+01  0.5924E+02
    -19.580  0.9029E+01  0.6028E+02
    -19.465  0.9926E+01  0.6143E+02
    -19.349  0.4243E+01  0.6193E+02
    -19.233  0.5619E+00  0.6199E+02
    -19.117  0.5746E-01  0.6200E+02
    -19.001  0.0000E+00  0.6200E+02
    -18.885  0.0000E+00  0.6200E+02
    -18.770  0.0000E+00  0.6200E+02
    -18.654  0.0000E+00  0.6200E+02
    -18.538  0.0000E+00  0.6200E+02
    -18.422  0.0000E+00  0.6200E+02
    -18.306  0.0000E+00  0.6200E+02
    -18.190  0.0000E+00  0.6200E+02
    -18.075  0.0000E+00  0.6200E+02
    -17.959  0.0000E+00  0.6200E+02
    -17.843  0.0000E+00  0.6200E+02
    -17.727  0.0000E+00  0.6200E+02
    -17.611  0.0000E+00  0.6200E+02
    -17.495  0.0000E+00  0.6200E+02
    -17.380  0.0000E+00  0.6200E+02
    -17.264  0.0000E+00  0.6200E+02
    -17.148  0.0000E+00  0.6200E+02
    -17.032  0.0000E+00  0.6200E+02
    -16.916  0.0000E+00  0.6200E+02
    -16.800  0.0000E+00  0.6200E+02
    -16.685  0.0000E+00  0.6200E+02
    -16.569  0.0000E+00  0.6200E+02
    -16.453  0.0000E+00  0.6200E+02
    -16.337  0.0000E+00  0.6200E+02
    -16.221  0.0000E+00  0.6200E+02
    -16.105  0.0000E+00  0.6200E+02
    -15.990  0.0000E+00  0.6200E+02
    -15.874  0.0000E+00  0.6200E+02
    -15.758  0.0000E+00  0.6200E+02
    -15.642  0.0000E+00  0.6200E+02
    -15.526  0.0000E+00  0.6200E+02
    -15.410  0.0000E+00  0.6200E+02
    -15.295  0.0000E+00  0.6200E+02
    -15.179  0.0000E+00  0.6200E+02
    -15.063  0.0000E+00  0.6200E+02
    -14.947  0.0000E+00  0.6200E+02
    -14.831  0.0000E+00  0.6200E+02
    -14.715  0.0000E+00  0.6200E+02
    -14.600  0.0000E+00  0.6200E+02
    -14.484  0.0000E+00  0.6200E+02
    -14.368  0.0000E+00  0.6200E+02
    -14.252  0.0000E+00  0.6200E+02
    -14.136  0.0000E+00  0.6200E+02
    -14.020  0.0000E+00  0.6200E+02
    -13.905  0.0000E+00  0.6200E+02
    -13.789  0.0000E+00  0.6200E+02
    -13.673  0.0000E+00  0.6200E+02
    -13.557  0.0000E+00  0.6200E+02
    -13.441  0.0000E+00  0.6200E+02
    -13.325  0.0000E+00  0.6200E+02
    -13.210  0.0000E+00  0.6200E+02
    -13.094  0.0000E+00  0.6200E+02
    -12.978  0.0000E+00  0.6200E+02
    -12.862  0.0000E+00  0.6200E+02
    -12.746  0.0000E+00  0.6200E+02
    -12.630  0.0000E+00  0.6200E+02
    -12.515  0.0000E+00  0.6200E+02
    -12.399  0.0000E+00  0.6200E+02
    -12.283  0.0000E+00  0.6200E+02
    -12.167  0.0000E+00  0.6200E+02
    -12.051  0.4431E-02  0.6200E+02
    -11.935  0.4270E-01  0.6201E+02
    -11.820  0.4237E+00  0.6205E+02
    -11.704  0.3444E+01  0.6245E+02
    -11.588  0.1115E+02  0.6375E+02
    -11.472  0.1461E+02  0.6544E+02
    -11.356  0.1533E+02  0.6721E+02
    -11.240  0.5982E+01  0.6791E+02
    -11.125  0.1664E+01  0.6810E+02
    -11.009  0.6571E+01  0.6886E+02
    -10.893  0.1708E+02  0.7084E+02
    -10.777  0.8878E+01  0.7187E+02
    -10.661  0.3801E+01  0.7231E+02
    -10.545  0.1427E+02  0.7397E+02
    -10.430  0.2814E+02  0.7723E+02
    -10.314  0.2735E+02  0.8040E+02
    -10.198  0.2990E+02  0.8386E+02
    -10.082  0.2412E+02  0.8666E+02
     -9.966  0.2690E+02  0.8978E+02
     -9.850  0.3361E+02  0.9368E+02
     -9.734  0.3271E+02  0.9747E+02
     -9.619  0.2715E+02  0.1006E+03
     -9.503  0.1111E+02  0.1019E+03
     -9.387  0.8077E+01  0.1029E+03
     -9.271  0.2069E+02  0.1053E+03
     -9.155  0.2655E+02  0.1083E+03
     -9.039  0.1970E+02  0.1106E+03
     -8.924  0.2136E+02  0.1131E+03
     -8.808  0.1952E+02  0.1154E+03
     -8.692  0.2392E+02  0.1181E+03
     -8.576  0.1512E+02  0.1199E+03
     -8.460  0.1032E+02  0.1211E+03
     -8.344  0.6589E+01  0.1219E+03
     -8.229  0.1528E+01  0.1220E+03
     -8.113  0.3623E+01  0.1225E+03
     -7.997  0.1266E+02  0.1239E+03
     -7.881  0.1443E+02  0.1256E+03
     -7.765  0.1236E+02  0.1270E+03
     -7.649  0.2079E+02  0.1294E+03
     -7.534  0.2895E+02  0.1328E+03
     -7.418  0.3403E+02  0.1367E+03
     -7.302  0.3206E+02  0.1405E+03
     -7.186  0.2629E+02  0.1435E+03
     -7.070  0.2239E+02  0.1461E+03
     -6.954  0.2067E+02  0.1485E+03
     -6.839  0.1531E+02  0.1503E+03
     -6.723  0.1596E+02  0.1521E+03
     -6.607  0.2249E+02  0.1547E+03
     -6.491  0.2447E+02  0.1576E+03
     -6.375  0.1809E+02  0.1597E+03
     -6.259  0.1310E+02  0.1612E+03
     -6.144  0.1387E+02  0.1628E+03
     -6.028  0.1951E+02  0.1651E+03
     -5.912  0.2097E+02  0.1675E+03
     -5.796  0.2095E+02  0.1699E+03
     -5.680  0.1859E+02  0.1721E+03
     -5.564  0.2286E+02  0.1747E+03
     -5.449  0.3523E+02  0.1788E+03
     -5.333  0.3657E+02  0.1831E+03
     -5.217  0.2917E+02  0.1864E+03
     -5.101  0.1652E+02  0.1884E+03
     -4.985  0.1758E+02  0.1904E+03
     -4.869  0.1652E+02  0.1923E+03
     -4.754  0.1903E+02  0.1945E+03
     -4.638  0.2646E+02  0.1976E+03
     -4.522  0.3836E+02  0.2020E+03
     -4.406  0.4988E+02  0.2078E+03
     -4.290  0.5181E+02  0.2138E+03
     -4.174  0.4047E+02  0.2185E+03
     -4.059  0.3672E+02  0.2228E+03
     -3.943  0.4358E+02  0.2278E+03
     -3.827  0.4333E+02  0.2329E+03
     -3.711  0.2741E+02  0.2361E+03
     -3.595  0.1969E+02  0.2383E+03
     -3.479  0.2075E+02  0.2408E+03
     -3.364  0.1950E+02  0.2430E+03
     -3.248  0.8072E+01  0.2440E+03
     -3.132  0.5771E+01  0.2446E+03
     -3.016  0.8860E+01  0.2457E+03
     -2.900  0.2950E+01  0.2460E+03
     -2.784  0.2944E+01  0.2463E+03
     -2.669  0.8738E+01  0.2474E+03
     -2.553  0.4779E+01  0.2479E+03
     -2.437  0.6919E+00  0.2480E+03
     -2.321  0.7138E-01  0.2480E+03
     -2.205  0.0000E+00  0.2480E+03
     -2.089  0.0000E+00  0.2480E+03
     -1.974  0.0000E+00  0.2480E+03
     -1.858  0.0000E+00  0.2480E+03
     -1.742  0.0000E+00  0.2480E+03
     -1.626  0.0000E+00  0.2480E+03
     -1.510  0.0000E+00  0.2480E+03
     -1.394  0.0000E+00  0.2480E+03
     -1.279  0.0000E+00  0.2480E+03
     -1.163  0.0000E+00  0.2480E+03
     -1.047  0.0000E+00  0.2480E+03
     -0.931  0.0000E+00  0.2480E+03
     -0.815  0.0000E+00  0.2480E+03
     -0.699  0.0000E+00  0.2480E+03
     -0.584  0.0000E+00  0.2480E+03
     -0.468  0.0000E+00  0.2480E+03
     -0.352  0.0000E+00  0.2480E+03
     -0.236  0.0000E+00  0.2480E+03
     -0.120  0.0000E+00  0.2480E+03
     -0.004  0.0000E+00  0.2480E+03
      0.111  0.1728E-04  0.2480E+03
      0.227  0.3244E-03  0.2480E+03
      0.343  0.3521E-02  0.2480E+03
      0.459  0.3483E-01  0.2480E+03
      0.575  0.2749E+00  0.2480E+03
      0.691  0.1109E+01  0.2482E+03
      0.806  0.2415E+01  0.2484E+03
      0.922  0.4031E+01  0.2489E+03
      1.038  0.4750E+01  0.2495E+03
      1.154  0.3346E+01  0.2498E+03
      1.270  0.1154E+01  0.2500E+03
      1.386  0.5551E+00  0.2500E+03
      1.501  0.2125E+01  0.2503E+03
      1.617  0.5494E+01  0.2509E+03
      1.733  0.6306E+01  0.2517E+03
      1.849  0.3219E+01  0.2520E+03
      1.965  0.3594E+01  0.2525E+03
      2.081  0.6318E+01  0.2532E+03
      2.196  0.6239E+01  0.2539E+03
      2.312  0.6053E+01  0.2546E+03
      2.428  0.7022E+01  0.2554E+03
      2.544  0.7069E+01  0.2562E+03
      2.660  0.6361E+01  0.2570E+03
      2.776  0.6801E+01  0.2578E+03
      2.891  0.7662E+01  0.2587E+03
      3.007  0.8834E+01  0.2597E+03
      3.123  0.7706E+01  0.2606E+03
      3.239  0.8007E+01  0.2615E+03
      3.355  0.8802E+01  0.2625E+03
      3.471  0.9533E+01  0.2636E+03
      3.586  0.9508E+01  0.2647E+03
      3.702  0.1122E+02  0.2660E+03
      3.818  0.1202E+02  0.2674E+03
      3.934  0.1152E+02  0.2688E+03
      4.050  0.1235E+02  0.2702E+03
      4.166  0.1441E+02  0.2719E+03
      4.281  0.1458E+02  0.2736E+03
      4.397  0.1443E+02  0.2752E+03
      4.513  0.1416E+02  0.2769E+03
      4.629  0.1428E+02  0.2785E+03
      4.745  0.1545E+02  0.2803E+03
      4.861  0.1665E+02  0.2823E+03
      4.976  0.1802E+02  0.2843E+03
      5.092  0.1843E+02  0.2865E+03
      5.208  0.1965E+02  0.2888E+03
      5.324  0.2115E+02  0.2912E+03
      5.440  0.2091E+02  0.2936E+03
      5.556  0.1949E+02  0.2959E+03
      5.671  0.1971E+02  0.2982E+03
      5.787  0.2057E+02  0.3006E+03
      5.903  0.2151E+02  0.3031E+03
      6.019  0.2259E+02  0.3057E+03
      6.135  0.2454E+02  0.3085E+03
      6.251  0.2552E+02  0.3115E+03
      6.366  0.2672E+02  0.3146E+03
      6.482  0.2661E+02  0.3177E+03
      6.598  0.2605E+02  0.3207E+03
      6.714  0.2482E+02  0.3236E+03
      6.830  0.2464E+02  0.3264E+03
      6.946  0.2413E+02  0.3292E+03
      7.061  0.2203E+02  0.3318E+03
      7.177  0.2013E+02  0.3341E+03
      7.293  0.1900E+02  0.3363E+03
      7.409  0.1784E+02  0.3384E+03
      7.525  0.1605E+02  0.3403E+03
      7.641  0.1345E+02  0.3418E+03
      7.756  0.1033E+02  0.3430E+03
      7.872  0.5833E+01  0.3437E+03
      7.988  0.2068E+01  0.3439E+03
      8.104  0.4498E+00  0.3440E+03
      8.220  0.5159E-01  0.3440E+03
      8.336  0.3277E-02  0.3440E+03
      8.451  0.0000E+00  0.3440E+03
      8.567  0.0000E+00  0.3440E+03
      8.683  0.0000E+00  0.3440E+03
      8.799  0.0000E+00  0.3440E+03
      8.915  0.0000E+00  0.3440E+03
      9.031  0.0000E+00  0.3440E+03
      9.146  0.0000E+00  0.3440E+03
      9.262  0.0000E+00  0.3440E+03
      9.378  0.0000E+00  0.3440E+03
      9.494  0.0000E+00  0.3440E+03
      9.610  0.0000E+00  0.3440E+03
