       N       E                     dE             d eps       ncg     rms          rms(c)
RMM:   1     0.332008792704E+04    0.33201E+04   -0.74366E+04 86688   0.878E+02
RMM:   2     0.104999161111E+04   -0.22701E+04   -0.24360E+04 86688   0.253E+02
RMM:   3     0.857252685667E+02   -0.96427E+03   -0.10252E+04 86688   0.187E+02
RMM:   4    -0.344378603899E+03   -0.43010E+03   -0.36617E+03 86688   0.130E+02
RMM:   5    -0.451555204215E+03   -0.10718E+03   -0.97534E+02 86688   0.684E+01
RMM:   6    -0.479121012602E+03   -0.27566E+02   -0.25138E+02 86688   0.353E+01
RMM:   7    -0.486432389855E+03   -0.73114E+01   -0.69985E+01 86688   0.179E+01
RMM:   8    -0.488624160404E+03   -0.21918E+01   -0.20639E+01 86688   0.957E+00
RMM:   9    -0.489483787521E+03   -0.85963E+00   -0.84386E+00221720   0.507E+00
RMM:  10    -0.489602326234E+03   -0.11854E+00   -0.11163E+00235291   0.147E+00
RMM:  11    -0.489604510614E+03   -0.21844E-02   -0.37741E-02221803   0.311E-01
RMM:  12    -0.489605135262E+03   -0.62465E-03   -0.61264E-03223008   0.806E-02    0.397E+01
RMM:  13    -0.448115194568E+03    0.41490E+02   -0.14670E+02208281   0.243E+01    0.153E+01
RMM:  14    -0.446863851806E+03    0.12513E+01   -0.54126E+00217694   0.417E+00    0.963E+00
RMM:  15    -0.446348968285E+03    0.51488E+00   -0.16074E+00214470   0.351E+00    0.130E+00
RMM:  16    -0.446307523904E+03    0.41444E-01   -0.26233E-01221644   0.910E-01    0.526E-01
RMM:  17    -0.446316240103E+03   -0.87162E-02   -0.47170E-02209157   0.417E-01    0.328E-01
RMM:  18    -0.446313285600E+03    0.29545E-02   -0.92682E-03217093   0.215E-01    0.819E-02
RMM:  19    -0.446312520872E+03    0.76473E-03   -0.19935E-03218355   0.777E-02    0.385E-02
RMM:  20    -0.446312333007E+03    0.18787E-03   -0.54000E-04219699   0.380E-02    0.216E-02
RMM:  21    -0.446312297090E+03    0.35916E-04   -0.16433E-04218838   0.226E-02    0.147E-02
RMM:  22    -0.446312288794E+03    0.82960E-05   -0.32088E-05217583   0.109E-02    0.339E-03
RMM:  23    -0.446312288497E+03    0.29762E-06   -0.37830E-06177777   0.390E-03
   1 F= -.44935834E+03 E0= -.44935834E+03  d E =-.102427E-09
