    #         X           Y           Z       CHARGE      MIN DIST   ATOMIC VOL
 --------------------------------------------------------------------------------
    1    2.021786    0.802359   14.291044    0.286370     0.039532     3.851169
    2    3.358395    4.212193   14.291044    0.273592     0.039532     7.832841
    3    0.314303    2.152670   10.277373    0.289706     0.054317     1.844797
    4   -1.967309    5.015761   10.277373    0.280619     0.054317     1.834144
    5    1.707116    1.348530   10.277373    0.287829     0.054317     1.715182
    6    5.327431    0.804141   10.277373    0.298620     0.054317     1.884747
    7   -0.316030    2.152098   14.291044    0.286734     0.039532    10.171241
    8    1.968669    5.014552   14.291044    0.272748     0.039532     2.893259
    9    2.593203    0.000000    8.660451    0.339312     0.041536   249.060902
   10    3.507430    0.000000   10.020646    0.326386     0.040533     2.255837
   11    2.377823    4.118511    8.660451    0.339983     0.088911   238.247799
   12    1.920710    3.326767   10.020646    0.340306     0.125902     1.916707
   13   -1.296602    2.245780    8.660451    0.339116     0.041536   243.457264
   14   -1.753715    3.037523   10.020646    0.324591     0.040533     1.716070
   15    4.747533    0.000000   12.666889    0.372990     0.056413     3.172909
   16    3.839789    0.000000   14.035152    0.328555     0.053018     2.374799
   17    1.300658    2.252806   12.666889    0.368942     0.056413     3.170245
   18    1.754531    3.038936   14.035152    0.354029     0.140541     1.973524
   19   12.323933    4.111484   12.666889    0.373251     0.056413     3.172909
   20   -1.919894    3.325355   14.035152    0.326910     0.053018     2.208785
   21    9.370636    0.802359   14.291044    0.286366     0.039532     3.853832
   22   10.707245    4.212193   14.291044    0.273592     0.039532     7.831065
   23    5.643094    1.349739   14.291044    0.292533     0.074537     4.635962
   24    7.663153    2.152670   10.277373    0.289705     0.054317     1.843909
   25    5.381541    5.015761   10.277373    0.297527     0.054317     1.906053
   26    3.988728    4.211620   10.277373    0.201404     0.090016     1.500340
   27    9.055966    1.348530   10.277373    0.287700     0.054317     1.716070
   28   12.676281    0.804141   10.277373    0.298626     0.054317     1.887410
   29    7.032820    2.152098   14.291044    0.286735     0.039532     9.246179
   30    9.317519    5.014552   14.291044    0.272752     0.039532     2.890596
   31    9.942053    0.000000    8.660451    0.339312     0.041536   249.354755
   32   10.856280    0.000000   10.020646    0.326385     0.040533     2.248735
   33    9.726673    4.118511    8.660451    0.339982     0.088911   238.215839
   34    9.269560    3.326767   10.020646    0.340306     0.125902     1.914931
   35    6.052248    2.245780    8.660451    0.339325     0.041536   243.278822
   36    5.595135    3.037523   10.020646    0.324591     0.040533     1.716070
   37   12.096383    0.000000   12.666889    0.372990     0.056413     3.172909
   38   11.188639    0.000000   14.035152    0.328555     0.053018     2.374799
   39    8.649508    2.252806   12.666889    0.368942     0.056413     3.170245
   40    9.103381    3.038936   14.035152    0.354026     0.140541     1.972637
   41    4.975083    4.111484   12.666889    0.371910     0.056413     3.168470
   42    5.428956    3.325355   14.035152    0.326910     0.053018     2.199907
   43   -1.652639    7.166649   14.291044    0.286366     0.039532     3.848506
   44   -0.316030   10.576483   14.291044    0.273592     0.039532     7.832841
   45    1.653006    5.560150   10.277373    0.217084     0.090016     6.127425
   46   -3.360122    8.516961   10.277373    0.289851     0.054317     1.924697
   47   -5.641734   11.380051   10.277373    0.284452     0.054317     1.848348
   48   -1.967309    7.712820   10.277373    0.288889     0.054317     1.711631
   49    1.653006    7.168431   10.277373    0.298620     0.054317     1.883859
   50   -3.990455    8.516388   14.291044    0.286720     0.039532     7.915404
   51   -1.705756   11.378842   14.291044    0.272755     0.039532     2.516843
   52   -1.652639    5.561932   14.291044    0.294902     0.074537     4.274638
   53   -1.081222    6.364291    8.660451    0.339178     0.041536   248.696026
   54   -0.166995    6.364291   10.020646    0.326385     0.040533     2.224765
   55   -1.296602   10.482801    8.660451    0.339983     0.088911   237.439924
   56   -1.753715    9.691058   10.020646    0.340306     0.125902     1.916707
   57   -4.971027    8.610070    8.660451    0.340549     0.041536   242.041263
   58   -5.428140    9.401814   10.020646    0.324591     0.040533     1.716070
   59    1.073108    6.364291   12.666889    0.372990     0.056413     3.172909
   60    0.165364    6.364291   14.035152    0.328555     0.053018     2.373023
   61   -2.373767    8.617097   12.666889    0.368942     0.056413     3.170245
   62   -1.919894    9.403226   14.035152    0.354025     0.140541     1.973524
   63   -6.048192   10.475775   12.666889    0.371856     0.056413     3.168470
   64   -5.594319    9.689645   14.035152    0.326910     0.053018     2.216775
   65    5.696211    7.166649   14.291044    0.286366     0.039532     3.847618
   66    7.032820   10.576483   14.291044    0.273592     0.039532     7.832841
   67    1.968669    7.714029   14.291044    0.292117     0.074537     4.260433
   68    9.001856    5.560150   10.277373    0.217082     0.090016     6.128312
   69    3.988728    8.516961   10.277373    0.289855     0.054317     1.925584
   70    1.707116   11.380051   10.277373    0.301678     0.054317     1.929136
   71    0.314303   10.575911   10.277373    0.201553     0.090016     1.582015
   72    5.381541    7.712820   10.277373    0.288101     0.054317     1.715182
   73    9.001856    7.168431   10.277373    0.298623     0.054317     1.882083
   74    3.358395    8.516388   14.291044    0.286744     0.039532     9.274588
   75    5.643094   11.378842   14.291044    0.272748     0.039532     2.890596
   76    5.696211    5.561932   14.291044    0.294902     0.074537     4.272862
   77    6.267628    6.364291    8.660451    0.339311     0.041536   248.774150
   78    7.181855    6.364291   10.020646    0.326385     0.040533     2.230979
   79    6.052248   10.482801    8.660451    0.339983     0.088911   237.407964
   80    5.595135    9.691058   10.020646    0.341342     0.125902     1.918482
   81    2.377823    8.610070    8.660451    0.340551     0.041536   242.451415
   82    1.920710    9.401814   10.020646    0.324591     0.040533     1.716070
   83    8.421958    6.364291   12.666889    0.373574     0.056413     3.173796
   84    7.514214    6.364291   14.035152    0.328555     0.053018     2.373911
   85    4.975083    8.617097   12.666889    0.368942     0.056413     3.170245
   86    5.428956    9.403226   14.035152    0.354029     0.140541     1.975300
   87    1.300658   10.475775   12.666889    0.371851     0.056413     3.167582
   88    1.754531    9.689645   14.035152    0.326910     0.053018     2.203458
   89   12.991944    1.349739   14.291044    0.291598     0.074537     4.260433
   90   11.337578    4.211620   10.277373    0.201413     0.090016     1.503003
   91    9.317519    7.714029   14.291044    0.291915     0.074537     4.262209
   92    7.663153   10.575911   10.277373    0.201556     0.090016     1.582903
   93   -2.021419   11.924440   10.277373    0.217087     0.090016     6.130088
   94   -5.327064   11.926222   14.291044    0.294902     0.074537     4.271974
   95    5.327431   11.924440   10.277373    0.217084     0.090016     6.129200
   96    2.021786   11.926222   14.291044    0.294902     0.074537     4.279077
   97    2.509118    0.000000    9.627338    7.355383     0.725118   106.658204
   98    2.536941    0.000000   14.582507    7.396621     0.698074   342.602226
   99    2.419866    4.191331    9.627338    7.343920     0.765624    94.750475
  100    2.405955    4.167236   14.582507    7.427163     0.694833   324.658514
  101   -1.254559    2.172960    9.627338    7.356401     0.725118   106.223194
  102   -1.268470    2.197055   14.582507    7.400192     0.698074   333.637472
  103    4.833633    0.000000   13.635694    7.334459     0.731266    30.736554
  104    4.807603    0.000000   10.557717    7.452009     0.675084    30.717911
  105    1.257609    2.178242   13.635694    7.314519     0.744791    32.908052
  106    1.270624    2.200784   10.557717    7.382941     0.700329    34.387974
  107   12.280884    4.186048   13.635694    7.334713     0.731266    30.845750
  108   -2.403801    4.163506   10.557717    7.485958     0.675084    31.964347
  109    9.857968    0.000000    9.627338    7.355387     0.725118   107.863803
  110    9.885791    0.000000   14.582507    7.396626     0.698074   343.489114
  111    9.768716    4.191331    9.627338    7.343914     0.765624    94.749587
  112    9.754805    4.167236   14.582507    7.427165     0.694833   324.671830
  113    6.094291    2.172960    9.627338    7.356191     0.725118   106.131753
  114    6.080380    2.197055   14.582507    7.399254     0.698074   333.723586
  115   12.182483    0.000000   13.635694    7.334468     0.731266    30.737442
  116   12.156453    0.000000   10.557717    7.452003     0.675084    30.723237
  117    8.606459    2.178242   13.635694    7.314519     0.744791    32.909828
  118    8.619474    2.200784   10.557717    7.383071     0.700329    34.376432
  119    4.932034    4.186048   13.635694    7.336054     0.731266    30.841311
  120    4.945049    4.163506   10.557717    7.469045     0.675084    31.862253
  121   -1.165307    6.364291    9.627338    7.355526     0.725118   108.182514
  122   -1.137484    6.364291   14.582507    7.396636     0.698074   344.855400
  123   -1.254559   10.555621    9.627338    7.343921     0.765624    96.240161
  124   -1.268470   10.531526   14.582507    7.427168     0.694833   324.274995
  125   -4.928984    8.537250    9.627338    7.354967     0.725118   106.605825
  126    9.754805    8.561345   14.582507    7.399878     0.698074   333.255729
  127    1.159208    6.364291   13.635694    7.334469     0.731266    30.739217
  128    1.133178    6.364291   10.557717    7.452010     0.675084    30.738330
  129   -2.416816    8.542533   13.635694    7.314519     0.744791    32.898287
  130   -2.403801    8.565075   10.557717    7.381881     0.700329    34.389749
  131   -6.091241   10.550339   13.635694    7.336108     0.731266    30.842199
  132    8.619474   10.527797   10.557717    7.482120     0.675084    31.929724
  133    6.183543    6.364291    9.627338    7.355391     0.725118   108.408009
  134    6.211366    6.364291   14.582507    7.396626     0.698074   343.476685
  135    6.094291   10.555621    9.627338    7.342882     0.765624    94.769118
  136    6.080380   10.531526   14.582507    7.427162     0.694833   324.306955
  137    2.419866    8.537250    9.627338    7.354965     0.725118   106.200112
  138    2.405955    8.561345   14.582507    7.399662     0.698074   333.343619
  139    8.508058    6.364291   13.635694    7.333880     0.731266    30.731227
  140    8.482028    6.364291   10.557717    7.452003     0.675084    30.725901
  141    4.932034    8.542533   13.635694    7.314519     0.744791    32.909828
  142    4.945049    8.565075   10.557717    7.382667     0.700329    34.390637
  143    1.257609   10.550339   13.635694    7.336113     0.731266    30.839536
  144    1.270624   10.527797   10.557717    7.464895     0.675084    31.856926
 --------------------------------------------------------------------------------
    VACUUM CHARGE:               0.0000
    VACUUM VOLUME:               0.0000
    NUMBER OF ELECTRONS:       384.0001
