  93  93   0   0
  0.1016658E+02  0.9814900E-09  0.9814900E-09  0.9814900E-09  0.5000000E-15
  1.000000000000000E-004
  CAR 
 ice                                     
      9.63715205    -25.09998656  301     -1.94166800      1.00000000
    -25.100  0.0000E+00  0.0000E+00
    -24.984  0.0000E+00  0.0000E+00
    -24.868  0.0000E+00  0.0000E+00
    -24.753  0.0000E+00  0.0000E+00
    -24.637  0.0000E+00  0.0000E+00
    -24.521  0.0000E+00  0.0000E+00
    -24.405  0.0000E+00  0.0000E+00
    -24.289  0.0000E+00  0.0000E+00
    -24.174  0.0000E+00  0.0000E+00
    -24.058  0.0000E+00  0.0000E+00
    -23.942  0.3715E-02  0.4301E-03
    -23.826  0.3520E-01  0.4506E-02
    -23.711  0.3480E+00  0.4480E-01
    -23.595  0.2910E+01  0.3817E+00
    -23.479  0.9994E+01  0.1539E+01
    -23.363  0.1115E+02  0.2829E+01
    -23.247  0.9159E+01  0.3890E+01
    -23.132  0.8747E+01  0.4903E+01
    -23.016  0.2401E+02  0.7684E+01
    -22.900  0.2481E+02  0.1056E+02
    -22.784  0.1482E+02  0.1228E+02
    -22.668  0.1696E+02  0.1424E+02
    -22.553  0.1971E+02  0.1653E+02
    -22.437  0.2428E+02  0.1934E+02
    -22.321  0.3332E+02  0.2320E+02
    -22.205  0.2202E+02  0.2576E+02
    -22.089  0.1521E+02  0.2752E+02
    -21.974  0.2345E+02  0.3024E+02
    -21.858  0.3659E+02  0.3448E+02
    -21.742  0.3490E+02  0.3852E+02
    -21.626  0.2436E+02  0.4135E+02
    -21.510  0.1352E+02  0.4292E+02
    -21.395  0.2144E+02  0.4541E+02
    -21.279  0.1827E+02  0.4753E+02
    -21.163  0.8987E+01  0.4857E+02
    -21.047  0.1418E+02  0.5022E+02
    -20.932  0.1291E+02  0.5172E+02
    -20.816  0.9285E+01  0.5279E+02
    -20.700  0.1225E+02  0.5422E+02
    -20.584  0.1154E+02  0.5556E+02
    -20.468  0.7392E+01  0.5641E+02
    -20.353  0.9495E+01  0.5751E+02
    -20.237  0.3843E+01  0.5797E+02
    -20.121  0.2283E+01  0.5823E+02
    -20.005  0.8049E+01  0.5917E+02
    -19.889  0.7817E+01  0.6007E+02
    -19.774  0.8630E+01  0.6107E+02
    -19.658  0.6678E+01  0.6185E+02
    -19.542  0.1183E+01  0.6198E+02
    -19.426  0.1263E+00  0.6200E+02
    -19.310  0.0000E+00  0.6200E+02
    -19.195  0.0000E+00  0.6200E+02
    -19.079  0.0000E+00  0.6200E+02
    -18.963  0.0000E+00  0.6200E+02
    -18.847  0.0000E+00  0.6200E+02
    -18.732  0.0000E+00  0.6200E+02
    -18.616  0.0000E+00  0.6200E+02
    -18.500  0.0000E+00  0.6200E+02
    -18.384  0.0000E+00  0.6200E+02
    -18.268  0.0000E+00  0.6200E+02
    -18.153  0.0000E+00  0.6200E+02
    -18.037  0.0000E+00  0.6200E+02
    -17.921  0.0000E+00  0.6200E+02
    -17.805  0.0000E+00  0.6200E+02
    -17.689  0.0000E+00  0.6200E+02
    -17.574  0.0000E+00  0.6200E+02
    -17.458  0.0000E+00  0.6200E+02
    -17.342  0.0000E+00  0.6200E+02
    -17.226  0.0000E+00  0.6200E+02
    -17.110  0.0000E+00  0.6200E+02
    -16.995  0.0000E+00  0.6200E+02
    -16.879  0.0000E+00  0.6200E+02
    -16.763  0.0000E+00  0.6200E+02
    -16.647  0.0000E+00  0.6200E+02
    -16.531  0.0000E+00  0.6200E+02
    -16.416  0.0000E+00  0.6200E+02
    -16.300  0.0000E+00  0.6200E+02
    -16.184  0.0000E+00  0.6200E+02
    -16.068  0.0000E+00  0.6200E+02
    -15.953  0.0000E+00  0.6200E+02
    -15.837  0.0000E+00  0.6200E+02
    -15.721  0.0000E+00  0.6200E+02
    -15.605  0.0000E+00  0.6200E+02
    -15.489  0.0000E+00  0.6200E+02
    -15.374  0.0000E+00  0.6200E+02
    -15.258  0.0000E+00  0.6200E+02
    -15.142  0.0000E+00  0.6200E+02
    -15.026  0.0000E+00  0.6200E+02
    -14.910  0.0000E+00  0.6200E+02
    -14.795  0.0000E+00  0.6200E+02
    -14.679  0.0000E+00  0.6200E+02
    -14.563  0.0000E+00  0.6200E+02
    -14.447  0.0000E+00  0.6200E+02
    -14.331  0.0000E+00  0.6200E+02
    -14.216  0.0000E+00  0.6200E+02
    -14.100  0.0000E+00  0.6200E+02
    -13.984  0.0000E+00  0.6200E+02
    -13.868  0.0000E+00  0.6200E+02
    -13.753  0.0000E+00  0.6200E+02
    -13.637  0.0000E+00  0.6200E+02
    -13.521  0.0000E+00  0.6200E+02
    -13.405  0.0000E+00  0.6200E+02
    -13.289  0.0000E+00  0.6200E+02
    -13.174  0.0000E+00  0.6200E+02
    -13.058  0.0000E+00  0.6200E+02
    -12.942  0.0000E+00  0.6200E+02
    -12.826  0.0000E+00  0.6200E+02
    -12.710  0.0000E+00  0.6200E+02
    -12.595  0.0000E+00  0.6200E+02
    -12.479  0.0000E+00  0.6200E+02
    -12.363  0.0000E+00  0.6200E+02
    -12.247  0.0000E+00  0.6200E+02
    -12.131  0.0000E+00  0.6200E+02
    -12.016  0.7967E-02  0.6200E+02
    -11.900  0.7257E-01  0.6201E+02
    -11.784  0.7204E+00  0.6209E+02
    -11.668  0.5752E+01  0.6276E+02
    -11.553  0.1743E+02  0.6478E+02
    -11.437  0.1276E+02  0.6625E+02
    -11.321  0.1048E+02  0.6747E+02
    -11.205  0.4484E+01  0.6799E+02
    -11.089  0.4287E+01  0.6849E+02
    -10.974  0.1176E+02  0.6985E+02
    -10.858  0.1366E+02  0.7144E+02
    -10.742  0.1223E+02  0.7285E+02
    -10.626  0.1217E+02  0.7427E+02
    -10.510  0.1696E+02  0.7623E+02
    -10.395  0.2054E+02  0.7861E+02
    -10.279  0.2726E+02  0.8177E+02
    -10.163  0.2407E+02  0.8456E+02
    -10.047  0.2227E+02  0.8714E+02
     -9.931  0.1914E+02  0.8936E+02
     -9.816  0.2422E+02  0.9217E+02
     -9.700  0.1874E+02  0.9434E+02
     -9.584  0.1940E+02  0.9659E+02
     -9.468  0.1334E+02  0.9814E+02
     -9.352  0.1628E+02  0.1000E+03
     -9.237  0.3186E+02  0.1037E+03
     -9.121  0.3167E+02  0.1074E+03
     -9.005  0.2396E+02  0.1102E+03
     -8.889  0.2068E+02  0.1126E+03
     -8.774  0.1762E+02  0.1146E+03
     -8.658  0.1883E+02  0.1168E+03
     -8.542  0.1716E+02  0.1188E+03
     -8.426  0.1259E+02  0.1202E+03
     -8.310  0.1403E+02  0.1219E+03
     -8.195  0.1482E+02  0.1236E+03
     -8.079  0.1278E+02  0.1251E+03
     -7.963  0.1330E+02  0.1266E+03
     -7.847  0.1098E+02  0.1279E+03
     -7.731  0.1153E+02  0.1292E+03
     -7.616  0.2515E+02  0.1321E+03
     -7.500  0.2280E+02  0.1348E+03
     -7.384  0.2538E+02  0.1377E+03
     -7.268  0.2689E+02  0.1408E+03
     -7.152  0.1859E+02  0.1430E+03
     -7.037  0.1969E+02  0.1453E+03
     -6.921  0.1720E+02  0.1473E+03
     -6.805  0.1946E+02  0.1495E+03
     -6.689  0.2464E+02  0.1524E+03
     -6.574  0.2931E+02  0.1558E+03
     -6.458  0.2748E+02  0.1590E+03
     -6.342  0.1867E+02  0.1611E+03
     -6.226  0.1648E+02  0.1630E+03
     -6.110  0.1619E+02  0.1649E+03
     -5.995  0.1849E+02  0.1671E+03
     -5.879  0.2132E+02  0.1695E+03
     -5.763  0.1972E+02  0.1718E+03
     -5.647  0.1914E+02  0.1740E+03
     -5.531  0.2296E+02  0.1767E+03
     -5.416  0.2544E+02  0.1796E+03
     -5.300  0.2810E+02  0.1829E+03
     -5.184  0.2679E+02  0.1860E+03
     -5.068  0.2945E+02  0.1894E+03
     -4.952  0.3238E+02  0.1932E+03
     -4.837  0.2204E+02  0.1957E+03
     -4.721  0.1877E+02  0.1979E+03
     -4.605  0.2915E+02  0.2013E+03
     -4.489  0.3654E+02  0.2055E+03
     -4.373  0.4238E+02  0.2104E+03
     -4.258  0.4179E+02  0.2153E+03
     -4.142  0.3852E+02  0.2197E+03
     -4.026  0.3823E+02  0.2242E+03
     -3.910  0.3079E+02  0.2278E+03
     -3.795  0.3420E+02  0.2317E+03
     -3.679  0.3303E+02  0.2356E+03
     -3.563  0.3289E+02  0.2394E+03
     -3.447  0.3031E+02  0.2429E+03
     -3.331  0.1740E+02  0.2449E+03
     -3.216  0.1019E+02  0.2461E+03
     -3.100  0.9629E+01  0.2472E+03
     -2.984  0.5800E+01  0.2479E+03
     -2.868  0.9047E+00  0.2480E+03
     -2.752  0.9477E-01  0.2480E+03
     -2.637  0.0000E+00  0.2480E+03
     -2.521  0.0000E+00  0.2480E+03
     -2.405  0.0000E+00  0.2480E+03
     -2.289  0.0000E+00  0.2480E+03
     -2.173  0.0000E+00  0.2480E+03
     -2.058  0.0000E+00  0.2480E+03
     -1.942  0.0000E+00  0.2480E+03
     -1.826  0.0000E+00  0.2480E+03
     -1.710  0.0000E+00  0.2480E+03
     -1.595  0.0000E+00  0.2480E+03
     -1.479  0.0000E+00  0.2480E+03
     -1.363  0.0000E+00  0.2480E+03
     -1.247  0.0000E+00  0.2480E+03
     -1.131  0.0000E+00  0.2480E+03
     -1.016  0.0000E+00  0.2480E+03
     -0.900  0.0000E+00  0.2480E+03
     -0.784  0.0000E+00  0.2480E+03
     -0.668  0.0000E+00  0.2480E+03
     -0.552  0.0000E+00  0.2480E+03
     -0.437  0.0000E+00  0.2480E+03
     -0.321  0.0000E+00  0.2480E+03
     -0.205  0.0000E+00  0.2480E+03
     -0.089  0.0000E+00  0.2480E+03
      0.027  0.0000E+00  0.2480E+03
      0.142  0.0000E+00  0.2480E+03
      0.258  0.6155E-05  0.2480E+03
      0.374  0.2049E-03  0.2480E+03
      0.490  0.2090E-02  0.2480E+03
      0.605  0.2078E-01  0.2480E+03
      0.721  0.1705E+00  0.2480E+03
      0.837  0.7237E+00  0.2481E+03
      0.953  0.1485E+01  0.2483E+03
      1.069  0.2234E+01  0.2485E+03
      1.184  0.2951E+01  0.2489E+03
      1.300  0.3274E+01  0.2493E+03
      1.416  0.3284E+01  0.2496E+03
      1.532  0.3389E+01  0.2500E+03
      1.648  0.4006E+01  0.2505E+03
      1.763  0.5066E+01  0.2511E+03
      1.879  0.4972E+01  0.2517E+03
      1.995  0.4568E+01  0.2522E+03
      2.111  0.5768E+01  0.2529E+03
      2.227  0.5772E+01  0.2535E+03
      2.342  0.5420E+01  0.2542E+03
      2.458  0.6278E+01  0.2549E+03
      2.574  0.7228E+01  0.2557E+03
      2.690  0.7788E+01  0.2566E+03
      2.806  0.8403E+01  0.2576E+03
      2.921  0.7282E+01  0.2584E+03
      3.037  0.6942E+01  0.2592E+03
      3.153  0.8282E+01  0.2602E+03
      3.269  0.9295E+01  0.2613E+03
      3.384  0.9503E+01  0.2624E+03
      3.500  0.9630E+01  0.2635E+03
      3.616  0.1183E+02  0.2649E+03
      3.732  0.1191E+02  0.2663E+03
      3.848  0.1131E+02  0.2676E+03
      3.963  0.1273E+02  0.2690E+03
      4.079  0.1255E+02  0.2705E+03
      4.195  0.1262E+02  0.2720E+03
      4.311  0.1217E+02  0.2734E+03
      4.427  0.1295E+02  0.2749E+03
      4.542  0.1424E+02  0.2765E+03
      4.658  0.1456E+02  0.2782E+03
      4.774  0.1569E+02  0.2800E+03
      4.890  0.1629E+02  0.2819E+03
      5.006  0.1628E+02  0.2838E+03
      5.121  0.1806E+02  0.2859E+03
      5.237  0.1933E+02  0.2881E+03
      5.353  0.1913E+02  0.2904E+03
      5.469  0.1924E+02  0.2926E+03
      5.584  0.2161E+02  0.2951E+03
      5.700  0.2338E+02  0.2978E+03
      5.816  0.2391E+02  0.3006E+03
      5.932  0.2378E+02  0.3033E+03
      6.048  0.2445E+02  0.3062E+03
      6.163  0.2500E+02  0.3091E+03
      6.279  0.2503E+02  0.3120E+03
      6.395  0.2550E+02  0.3149E+03
      6.511  0.2626E+02  0.3180E+03
      6.627  0.2529E+02  0.3209E+03
      6.742  0.2486E+02  0.3238E+03
      6.858  0.2392E+02  0.3265E+03
      6.974  0.2251E+02  0.3292E+03
      7.090  0.2184E+02  0.3317E+03
      7.206  0.2075E+02  0.3341E+03
      7.321  0.1999E+02  0.3364E+03
      7.437  0.1887E+02  0.3386E+03
      7.553  0.1685E+02  0.3406E+03
      7.669  0.1385E+02  0.3422E+03
      7.785  0.9770E+01  0.3433E+03
      7.900  0.4573E+01  0.3438E+03
      8.016  0.1179E+01  0.3440E+03
      8.132  0.2114E+00  0.3440E+03
      8.248  0.2358E-01  0.3440E+03
      8.363  0.1813E-02  0.3440E+03
      8.479  0.0000E+00  0.3440E+03
      8.595  0.0000E+00  0.3440E+03
      8.711  0.0000E+00  0.3440E+03
      8.827  0.0000E+00  0.3440E+03
      8.942  0.0000E+00  0.3440E+03
      9.058  0.0000E+00  0.3440E+03
      9.174  0.0000E+00  0.3440E+03
      9.290  0.0000E+00  0.3440E+03
      9.406  0.0000E+00  0.3440E+03
      9.521  0.0000E+00  0.3440E+03
      9.637  0.0000E+00  0.3440E+03
