Loading vasp/5.4.4-mpi-cuda
  Loading requirement: gcc/8.5.0 intel-compilers/19.0.4 cuda/10.1.1
    intel-mpi/2019.4
 running on   40 total cores
 distrk:  each k-point on   40 cores,    1 groups
 distr:  one band on   20 cores,    2 groups
 using from now: INCAR     
 vasp.5.4.4.18Apr17-6-g9f103f2a35 (build Dec 06 2019 17:20:26) complex          
  
 POSCAR found type information on POSCAR  O  H 
 POSCAR found :  2 types and      93 ions
 scaLAPACK will be used

 ----------------------------------------------------------------------------- 
|                                                                             |
|           W    W    AA    RRRRR   N    N  II  N    N   GGGG   !!!           |
|           W    W   A  A   R    R  NN   N  II  NN   N  G    G  !!!           |
|           W    W  A    A  R    R  N N  N  II  N N  N  G       !!!           |
|           W WW W  AAAAAA  RRRRR   N  N N  II  N  N N  G  GGG   !            |
|           WW  WW  A    A  R   R   N   NN  II  N   NN  G    G                |
|           W    W  A    A  R    R  N    N  II  N    N   GGGG   !!!           |
|                                                                             |
|      For optimal performance we recommend to set                            |
|        NCORE= 4 - approx SQRT( number of cores)                             |
|      NCORE specifies how many cores store one orbital (NPAR=cpu/NCORE).     |
|      This setting can  greatly improve the performance of VASP for DFT.     |
|      The default,   NCORE=1            might be grossly inefficient         |
|      on modern multi-core architectures or massively parallel machines.     |
|      Do your own testing !!!!                                               |
|      Unfortunately you need to use the default for GW and RPA calculations. |
|      (for HF NCORE is supported but not extensively tested yet)             |
|                                                                             |
 ----------------------------------------------------------------------------- 

 LDA part: xc-table for Pade appr. of Perdew
 POSCAR, INCAR and KPOINTS ok, starting setup
 FFT: planning ...
 WAVECAR not read
 WARNING: chargedensity file is incomplete
 WARNING: random wavefunctions but no delay for mixing, default for NELMDL
 entering main loop
       N       E                     dE             d eps       ncg     rms          rms(c)
RMM:   1     0.331849607900E+04    0.33185E+04   -0.74346E+04 86688   0.878E+02
RMM:   2     0.105025428961E+04   -0.22682E+04   -0.24346E+04 86688   0.253E+02
RMM:   3     0.882590437109E+02   -0.96200E+03   -0.10241E+04 86688   0.186E+02
RMM:   4    -0.343705142308E+03   -0.43196E+03   -0.36705E+03 86688   0.130E+02
RMM:   5    -0.451207555149E+03   -0.10750E+03   -0.97980E+02 86688   0.685E+01
RMM:   6    -0.478907490852E+03   -0.27700E+02   -0.25302E+02 86688   0.354E+01
RMM:   7    -0.486287759186E+03   -0.73803E+01   -0.70683E+01 86688   0.180E+01
RMM:   8    -0.488507300069E+03   -0.22195E+01   -0.20925E+01 86688   0.964E+00
RMM:   9    -0.489382602804E+03   -0.87530E+00   -0.85948E+00221735   0.512E+00
RMM:  10    -0.489504729403E+03   -0.12213E+00   -0.11508E+00235864   0.149E+00
RMM:  11    -0.489506922152E+03   -0.21927E-02   -0.38319E-02221789   0.314E-01
RMM:  12    -0.489507559457E+03   -0.63731E-03   -0.62509E-03223187   0.815E-02    0.394E+01
RMM:  13    -0.448773374168E+03    0.40734E+02   -0.14503E+02209026   0.242E+01    0.151E+01
RMM:  14    -0.447615298105E+03    0.11581E+01   -0.53166E+00217849   0.413E+00    0.955E+00
RMM:  15    -0.447146092620E+03    0.46921E+00   -0.16060E+00214416   0.352E+00    0.133E+00
RMM:  16    -0.447102654625E+03    0.43438E-01   -0.27701E-01221760   0.945E-01    0.512E-01
RMM:  17    -0.447110504191E+03   -0.78496E-02   -0.44304E-02208658   0.407E-01    0.323E-01
RMM:  18    -0.447107163420E+03    0.33408E-02   -0.91208E-03216481   0.210E-01    0.873E-02
RMM:  19    -0.447106016978E+03    0.11464E-02   -0.25969E-03217808   0.858E-02    0.368E-02
RMM:  20    -0.447105834411E+03    0.18257E-03   -0.53919E-04220332   0.367E-02    0.205E-02
RMM:  21    -0.447105811237E+03    0.23174E-04   -0.10209E-04219073   0.172E-02    0.983E-03
RMM:  22    -0.447105807423E+03    0.38141E-05   -0.19522E-05206562   0.821E-03    0.336E-03
RMM:  23    -0.447105807353E+03    0.69851E-07   -0.33476E-06174293   0.389E-03
   1 F= -.45017498E+03 E0= -.45017498E+03  d E =-.137666E-09
