<?xml version="1.0" encoding="ISO-8859-1"?>
<modeling>
 <generator>
  <i name="program" type="string">vasp </i>
  <i name="version" type="string">5.4.4.18Apr17-6-g9f103f2a35  </i>
  <i name="subversion" type="string">(build Dec 06 2019 17:20:26) complex            parallel </i>
  <i name="platform" type="string">LinuxIFC </i>
  <i name="date" type="string">2025 07 03 </i>
  <i name="time" type="string">17:37:51 </i>
 </generator>
 <incar>
  <i type="string" name="SYSTEM"> ice</i>
  <i type="int" name="ISTART">     1</i>
  <i type="string" name="PREC">normal</i>
  <i type="string" name="ALGO"> VeryFast</i>
  <i type="int" name="IMIX">     4</i>
  <i type="int" name="MAXMIX">    40</i>
  <i type="int" name="ICHARG">     1</i>
  <i type="int" name="NELM">   500</i>
  <i type="int" name="NELMIN">     4</i>
  <i type="int" name="IBRION">    -1</i>
  <i name="EDIFF">      0.00000100</i>
  <i type="int" name="NSW">     0</i>
  <i type="int" name="ISIF">     2</i>
  <i name="ENCUT">    400.00000000</i>
  <i name="POTIM">      0.50000000</i>
  <i type="string" name="LREAL"> AUTO</i>
  <i type="int" name="ISMEAR">    -1</i>
  <i name="SIGMA">      0.05000000</i>
  <i type="int" name="NWRITE">     0</i>
  <i type="logical" name="LWAVE"> F  </i>
  <i type="logical" name="LCHARG"> F  </i>
  <i type="logical" name="LVTOT"> T  </i>
  <i type="logical" name="LVHAR"> T  </i>
  <v type="int" name="KPOINT_BSE">    -1     0     0     0</v>
  <i type="int" name="NELM">   500</i>
 </incar>
 <structure name="primitive_cell" >
  <crystal>
   <varray name="basis" >
    <v>       9.81490000       0.00000000       0.00000000 </v>
    <v>       0.00000000       9.81490000       0.00000000 </v>
    <v>       0.00000000       0.00000000       9.81490000 </v>
   </varray>
   <i name="volume">    945.49151840 </i>
   <varray name="rec_basis" >
    <v>       0.10188591       0.00000000       0.00000000 </v>
    <v>       0.00000000       0.10188591       0.00000000 </v>
    <v>       0.00000000       0.00000000       0.10188591 </v>
   </varray>
  </crystal>
  <varray name="positions" >
   <v>      -0.41992175       0.38460911       0.13049547 </v>
   <v>      -0.46607811       0.47011483       0.12172819 </v>
   <v>      -0.32152747       0.40687220       0.08189589 </v>
   <v>      -0.38225555       0.37702473       0.29917167 </v>
   <v>       0.47637164       0.23650470       0.11586058 </v>
   <v>       0.46618203       0.14060969       0.09200511 </v>
   <v>      -0.36264964       0.35655891       0.39870809 </v>
   <v>       0.35358893      -0.45648962       0.11275815 </v>
   <v>      -0.16009027       0.39263569       0.02211454 </v>
   <v>      -0.33047815       0.44447727       0.39682422 </v>
   <v>       0.39424039      -0.38151280       0.15811776 </v>
   <v>      -0.19563623       0.39975649      -0.07073378 </v>
   <v>       0.29154856       0.47299922       0.16756972 </v>
   <v>      -0.13892653       0.49410896       0.02345821 </v>
   <v>       0.37455603       0.13440178       0.05815057 </v>
   <v>      -0.34972847       0.32434869      -0.19392658 </v>
   <v>       0.35774078      -0.42984646      -0.04391588 </v>
   <v>       0.42935435       0.10503316       0.27520403 </v>
   <v>       0.39042374       0.26745968       0.42104759 </v>
   <v>      -0.39457152      -0.32666150       0.36715300 </v>
   <v>      -0.44255469       0.00997320       0.08945674 </v>
   <v>       0.40941222       0.42243018       0.46817899 </v>
   <v>      -0.06194296       0.25654872       0.15035303 </v>
   <v>      -0.30880600       0.14180583       0.41404192 </v>
   <v>       0.34175488       0.36316621       0.44007886 </v>
   <v>       0.46558702      -0.26490336       0.26201999 </v>
   <v>      -0.27970025       0.39280074      -0.24263721 </v>
   <v>       0.41295989       0.11879184       0.37907671 </v>
   <v>      -0.31678876      -0.34634790       0.41884889 </v>
   <v>       0.34579364      -0.39012726      -0.14972440 </v>
   <v>       0.48721943      -0.19315327       0.19920937 </v>
   <v>      -0.43551845       0.05005176       0.41576379 </v>
   <v>      -0.32309550       0.46130068      -0.29614871 </v>
   <v>      -0.40179625      -0.30856759      -0.20191138 </v>
   <v>       0.43123822      -0.24493780       0.34911512 </v>
   <v>       0.30998482       0.09806376       0.36380401 </v>
   <v>       0.23183629       0.13718836      -0.04932908 </v>
   <v>      -0.32319738       0.04388817       0.43445476 </v>
   <v>      -0.36255489      -0.37041335      -0.47563908 </v>
   <v>       0.46264251      -0.35977341      -0.24441512 </v>
   <v>       0.01370793       0.21352026       0.18370029 </v>
   <v>      -0.20665519      -0.25480647      -0.08401196 </v>
   <v>      -0.24272280      -0.01778469       0.30407646 </v>
   <v>      -0.39814466      -0.08943963       0.09829820 </v>
   <v>      -0.31023342      -0.08159645       0.12517601 </v>
   <v>      -0.06540790      -0.34640292      -0.04821425 </v>
   <v>       0.23555003       0.19278036      -0.14338506 </v>
   <v>      -0.09615442       0.03254949       0.18473647 </v>
   <v>      -0.12999929      -0.34667801       0.40840151 </v>
   <v>       0.16600984       0.16403631       0.01131341 </v>
   <v>       0.30391751      -0.29742840      -0.11166696 </v>
   <v>       0.17233390       0.40691194       0.40749575 </v>
   <v>      -0.44519149      -0.34788638      -0.28805490 </v>
   <v>      -0.31484376      -0.15479220      -0.04113134 </v>
   <v>       0.04599456       0.25845195       0.27862739 </v>
   <v>      -0.15600770      -0.05103465       0.23728107 </v>
   <v>      -0.27313574      -0.18357803      -0.12867171 </v>
   <v>      -0.13814914       0.31013969      -0.31162722 </v>
   <v>      -0.00954885      -0.29179513       0.02754435 </v>
   <v>       0.00517479      -0.42818470       0.40702198 </v>
   <v>      -0.02815617      -0.33524234       0.39946102 </v>
   <v>       0.27231454       0.21278362      -0.29425262 </v>
   <v>       0.24892154      -0.03340421      -0.03114683 </v>
   <v>       0.00709829      -0.38115416      -0.14112217 </v>
   <v>       0.23119848      -0.18640129       0.05802484 </v>
   <v>       0.16984585      -0.42615717      -0.19887416 </v>
   <v>       0.06976648       0.38309815       0.40746314 </v>
   <v>       0.27985817      -0.14225107      -0.02198759 </v>
   <v>       0.02922760       0.35278709      -0.49872133 </v>
   <v>       0.29520932       0.27447045      -0.36762371 </v>
   <v>       0.04867946      -0.27889739       0.24917014 </v>
   <v>      -0.25131993       0.01863340      -0.30063577 </v>
   <v>      -0.03704806       0.33092747      -0.32885409 </v>
   <v>      -0.28017606      -0.06139767      -0.25151963 </v>
   <v>       0.14530764       0.03631010       0.37328450 </v>
   <v>       0.04911532       0.46629105      -0.25100714 </v>
   <v>       0.37380921      -0.16648769       0.49986245 </v>
   <v>       0.06954151      -0.23595248       0.16706029 </v>
   <v>       0.06778592       0.03557499       0.29138860 </v>
   <v>      -0.31640771       0.01474585      -0.38095447 </v>
   <v>       0.18111137       0.19562808      -0.30861547 </v>
   <v>       0.44472791      -0.18476092      -0.42661056 </v>
   <v>      -0.01379596       0.23785877      -0.34371415 </v>
   <v>       0.08636349      -0.43695300      -0.24774374 </v>
   <v>       0.03964870      -0.15035711       0.18904930 </v>
   <v>       0.29247878      -0.20171882      -0.44264435 </v>
   <v>       0.07479383       0.04896025       0.46723044 </v>
   <v>      -0.09651917       0.02188733      -0.35714475 </v>
   <v>       0.00387014       0.04610266      -0.36924981 </v>
   <v>       0.11333585      -0.27499414      -0.33136252 </v>
   <v>       0.06793650      -0.20282428      -0.47142610 </v>
   <v>       0.12678682      -0.18934783      -0.39191535 </v>
   <v>       0.06159788      -0.03455430      -0.36979694 </v>
  </varray>
 </structure>
 <varray name="primitive_index" >
  <v type="int" >        1 </v>
  <v type="int" >       32 </v>
  <v type="int" >       33 </v>
  <v type="int" >       86 </v>
  <v type="int" >       65 </v>
  <v type="int" >       17 </v>
  <v type="int" >       28 </v>
  <v type="int" >       25 </v>
  <v type="int" >       10 </v>
  <v type="int" >       87 </v>
  <v type="int" >       80 </v>
  <v type="int" >       50 </v>
  <v type="int" >       81 </v>
  <v type="int" >       51 </v>
  <v type="int" >       64 </v>
  <v type="int" >       45 </v>
  <v type="int" >       60 </v>
  <v type="int" >       73 </v>
  <v type="int" >       71 </v>
  <v type="int" >       67 </v>
  <v type="int" >       90 </v>
  <v type="int" >       70 </v>
  <v type="int" >       46 </v>
  <v type="int" >       58 </v>
  <v type="int" >       20 </v>
  <v type="int" >       26 </v>
  <v type="int" >        7 </v>
  <v type="int" >       21 </v>
  <v type="int" >       18 </v>
  <v type="int" >       15 </v>
  <v type="int" >       83 </v>
  <v type="int" >       59 </v>
  <v type="int" >       44 </v>
  <v type="int" >       84 </v>
  <v type="int" >       82 </v>
  <v type="int" >       72 </v>
  <v type="int" >       16 </v>
  <v type="int" >       14 </v>
  <v type="int" >       66 </v>
  <v type="int" >       85 </v>
  <v type="int" >        8 </v>
  <v type="int" >       57 </v>
  <v type="int" >       69 </v>
  <v type="int" >       30 </v>
  <v type="int" >       91 </v>
  <v type="int" >       29 </v>
  <v type="int" >       62 </v>
  <v type="int" >       68 </v>
  <v type="int" >       92 </v>
  <v type="int" >       63 </v>
  <v type="int" >       61 </v>
  <v type="int" >       38 </v>
  <v type="int" >       27 </v>
  <v type="int" >       56 </v>
  <v type="int" >       47 </v>
  <v type="int" >       19 </v>
  <v type="int" >       13 </v>
  <v type="int" >       55 </v>
  <v type="int" >       89 </v>
  <v type="int" >       93 </v>
  <v type="int" >       31 </v>
  <v type="int" >       11 </v>
  <v type="int" >       48 </v>
  <v type="int" >       88 </v>
  <v type="int" >       49 </v>
  <v type="int" >       37 </v>
  <v type="int" >        4 </v>
  <v type="int" >        9 </v>
  <v type="int" >       39 </v>
  <v type="int" >       53 </v>
  <v type="int" >       41 </v>
  <v type="int" >        6 </v>
  <v type="int" >       12 </v>
  <v type="int" >       43 </v>
  <v type="int" >       23 </v>
  <v type="int" >       36 </v>
  <v type="int" >       24 </v>
  <v type="int" >        5 </v>
  <v type="int" >       76 </v>
  <v type="int" >       42 </v>
  <v type="int" >       52 </v>
  <v type="int" >       79 </v>
  <v type="int" >       54 </v>
  <v type="int" >        3 </v>
  <v type="int" >       40 </v>
  <v type="int" >       78 </v>
  <v type="int" >       77 </v>
  <v type="int" >       74 </v>
  <v type="int" >       22 </v>
  <v type="int" >       35 </v>
  <v type="int" >       34 </v>
  <v type="int" >        2 </v>
  <v type="int" >       75 </v>
 </varray>
 <kpoints>
  <generation param="Gamma">
   <v type="int" name="divisions">      10       10       10 </v>
   <v name="usershift">      0.00000000       0.00000000       0.00000000 </v>
   <v name="genvec1">      0.10000000       0.00000000       0.00000000 </v>
   <v name="genvec2">      0.00000000       0.10000000       0.00000000 </v>
   <v name="genvec3">      0.00000000       0.00000000       0.10000000 </v>
   <v name="shift">      0.00000000       0.00000000       0.00000000 </v>
  </generation>
  <varray name="kpointlist" >
   <v>       0.00000000       0.00000000       0.00000000 </v>
   <v>       0.10000000       0.00000000       0.00000000 </v>
   <v>       0.20000000       0.00000000       0.00000000 </v>
   <v>       0.30000000       0.00000000       0.00000000 </v>
   <v>       0.40000000       0.00000000       0.00000000 </v>
   <v>       0.50000000       0.00000000       0.00000000 </v>
   <v>       0.00000000       0.10000000       0.00000000 </v>
   <v>       0.10000000       0.10000000       0.00000000 </v>
   <v>       0.20000000       0.10000000       0.00000000 </v>
   <v>       0.30000000       0.10000000       0.00000000 </v>
   <v>       0.40000000       0.10000000       0.00000000 </v>
   <v>       0.50000000       0.10000000       0.00000000 </v>
   <v>      -0.40000000       0.10000000       0.00000000 </v>
   <v>      -0.30000000       0.10000000       0.00000000 </v>
   <v>      -0.20000000       0.10000000       0.00000000 </v>
   <v>      -0.10000000       0.10000000       0.00000000 </v>
   <v>       0.00000000       0.20000000       0.00000000 </v>
   <v>       0.10000000       0.20000000       0.00000000 </v>
   <v>       0.20000000       0.20000000       0.00000000 </v>
   <v>       0.30000000       0.20000000       0.00000000 </v>
   <v>       0.40000000       0.20000000       0.00000000 </v>
   <v>       0.50000000       0.20000000       0.00000000 </v>
   <v>      -0.40000000       0.20000000       0.00000000 </v>
   <v>      -0.30000000       0.20000000       0.00000000 </v>
   <v>      -0.20000000       0.20000000       0.00000000 </v>
   <v>      -0.10000000       0.20000000       0.00000000 </v>
   <v>       0.00000000       0.30000000       0.00000000 </v>
   <v>       0.10000000       0.30000000       0.00000000 </v>
   <v>       0.20000000       0.30000000       0.00000000 </v>
   <v>       0.30000000       0.30000000       0.00000000 </v>
   <v>       0.40000000       0.30000000       0.00000000 </v>
   <v>       0.50000000       0.30000000       0.00000000 </v>
   <v>      -0.40000000       0.30000000       0.00000000 </v>
   <v>      -0.30000000       0.30000000       0.00000000 </v>
   <v>      -0.20000000       0.30000000       0.00000000 </v>
   <v>      -0.10000000       0.30000000       0.00000000 </v>
   <v>       0.00000000       0.40000000       0.00000000 </v>
   <v>       0.10000000       0.40000000       0.00000000 </v>
   <v>       0.20000000       0.40000000       0.00000000 </v>
   <v>       0.30000000       0.40000000       0.00000000 </v>
   <v>       0.40000000       0.40000000       0.00000000 </v>
   <v>       0.50000000       0.40000000       0.00000000 </v>
   <v>      -0.40000000       0.40000000       0.00000000 </v>
   <v>      -0.30000000       0.40000000       0.00000000 </v>
   <v>      -0.20000000       0.40000000       0.00000000 </v>
   <v>      -0.10000000       0.40000000       0.00000000 </v>
   <v>       0.00000000       0.50000000       0.00000000 </v>
   <v>       0.10000000       0.50000000       0.00000000 </v>
   <v>       0.20000000       0.50000000       0.00000000 </v>
   <v>       0.30000000       0.50000000       0.00000000 </v>
   <v>       0.40000000       0.50000000       0.00000000 </v>
   <v>       0.50000000       0.50000000       0.00000000 </v>
   <v>       0.00000000       0.00000000       0.10000000 </v>
   <v>       0.10000000       0.00000000       0.10000000 </v>
   <v>       0.20000000       0.00000000       0.10000000 </v>
   <v>       0.30000000       0.00000000       0.10000000 </v>
   <v>       0.40000000       0.00000000       0.10000000 </v>
   <v>       0.50000000       0.00000000       0.10000000 </v>
   <v>      -0.40000000       0.00000000       0.10000000 </v>
   <v>      -0.30000000       0.00000000       0.10000000 </v>
   <v>      -0.20000000       0.00000000       0.10000000 </v>
   <v>      -0.10000000       0.00000000       0.10000000 </v>
   <v>       0.00000000       0.10000000       0.10000000 </v>
   <v>       0.10000000       0.10000000       0.10000000 </v>
   <v>       0.20000000       0.10000000       0.10000000 </v>
   <v>       0.30000000       0.10000000       0.10000000 </v>
   <v>       0.40000000       0.10000000       0.10000000 </v>
   <v>       0.50000000       0.10000000       0.10000000 </v>
   <v>      -0.40000000       0.10000000       0.10000000 </v>
   <v>      -0.30000000       0.10000000       0.10000000 </v>
   <v>      -0.20000000       0.10000000       0.10000000 </v>
   <v>      -0.10000000       0.10000000       0.10000000 </v>
   <v>       0.00000000       0.20000000       0.10000000 </v>
   <v>       0.10000000       0.20000000       0.10000000 </v>
   <v>       0.20000000       0.20000000       0.10000000 </v>
   <v>       0.30000000       0.20000000       0.10000000 </v>
   <v>       0.40000000       0.20000000       0.10000000 </v>
   <v>       0.50000000       0.20000000       0.10000000 </v>
   <v>      -0.40000000       0.20000000       0.10000000 </v>
   <v>      -0.30000000       0.20000000       0.10000000 </v>
   <v>      -0.20000000       0.20000000       0.10000000 </v>
   <v>      -0.10000000       0.20000000       0.10000000 </v>
   <v>       0.00000000       0.30000000       0.10000000 </v>
   <v>       0.10000000       0.30000000       0.10000000 </v>
   <v>       0.20000000       0.30000000       0.10000000 </v>
   <v>       0.30000000       0.30000000       0.10000000 </v>
   <v>       0.40000000       0.30000000       0.10000000 </v>
   <v>       0.50000000       0.30000000       0.10000000 </v>
   <v>      -0.40000000       0.30000000       0.10000000 </v>
   <v>      -0.30000000       0.30000000       0.10000000 </v>
   <v>      -0.20000000       0.30000000       0.10000000 </v>
   <v>      -0.10000000       0.30000000       0.10000000 </v>
   <v>       0.00000000       0.40000000       0.10000000 </v>
   <v>       0.10000000       0.40000000       0.10000000 </v>
   <v>       0.20000000       0.40000000       0.10000000 </v>
   <v>       0.30000000       0.40000000       0.10000000 </v>
   <v>       0.40000000       0.40000000       0.10000000 </v>
   <v>       0.50000000       0.40000000       0.10000000 </v>
   <v>      -0.40000000       0.40000000       0.10000000 </v>
   <v>      -0.30000000       0.40000000       0.10000000 </v>
   <v>      -0.20000000       0.40000000       0.10000000 </v>
   <v>      -0.10000000       0.40000000       0.10000000 </v>
   <v>       0.00000000       0.50000000       0.10000000 </v>
   <v>       0.10000000       0.50000000       0.10000000 </v>
   <v>       0.20000000       0.50000000       0.10000000 </v>
   <v>       0.30000000       0.50000000       0.10000000 </v>
   <v>       0.40000000       0.50000000       0.10000000 </v>
   <v>       0.50000000       0.50000000       0.10000000 </v>
   <v>      -0.40000000       0.50000000       0.10000000 </v>
   <v>      -0.30000000       0.50000000       0.10000000 </v>
   <v>      -0.20000000       0.50000000       0.10000000 </v>
   <v>      -0.10000000       0.50000000       0.10000000 </v>
   <v>       0.00000000      -0.40000000       0.10000000 </v>
   <v>       0.10000000      -0.40000000       0.10000000 </v>
   <v>       0.20000000      -0.40000000       0.10000000 </v>
   <v>       0.30000000      -0.40000000       0.10000000 </v>
   <v>       0.40000000      -0.40000000       0.10000000 </v>
   <v>       0.50000000      -0.40000000       0.10000000 </v>
   <v>      -0.40000000      -0.40000000       0.10000000 </v>
   <v>      -0.30000000      -0.40000000       0.10000000 </v>
   <v>      -0.20000000      -0.40000000       0.10000000 </v>
   <v>      -0.10000000      -0.40000000       0.10000000 </v>
   <v>       0.00000000      -0.30000000       0.10000000 </v>
   <v>       0.10000000      -0.30000000       0.10000000 </v>
   <v>       0.20000000      -0.30000000       0.10000000 </v>
   <v>       0.30000000      -0.30000000       0.10000000 </v>
   <v>       0.40000000      -0.30000000       0.10000000 </v>
   <v>       0.50000000      -0.30000000       0.10000000 </v>
   <v>      -0.40000000      -0.30000000       0.10000000 </v>
   <v>      -0.30000000      -0.30000000       0.10000000 </v>
   <v>      -0.20000000      -0.30000000       0.10000000 </v>
   <v>      -0.10000000      -0.30000000       0.10000000 </v>
   <v>       0.00000000      -0.20000000       0.10000000 </v>
   <v>       0.10000000      -0.20000000       0.10000000 </v>
   <v>       0.20000000      -0.20000000       0.10000000 </v>
   <v>       0.30000000      -0.20000000       0.10000000 </v>
   <v>       0.40000000      -0.20000000       0.10000000 </v>
   <v>       0.50000000      -0.20000000       0.10000000 </v>
   <v>      -0.40000000      -0.20000000       0.10000000 </v>
   <v>      -0.30000000      -0.20000000       0.10000000 </v>
   <v>      -0.20000000      -0.20000000       0.10000000 </v>
   <v>      -0.10000000      -0.20000000       0.10000000 </v>
   <v>       0.00000000      -0.10000000       0.10000000 </v>
   <v>       0.10000000      -0.10000000       0.10000000 </v>
   <v>       0.20000000      -0.10000000       0.10000000 </v>
   <v>       0.30000000      -0.10000000       0.10000000 </v>
   <v>       0.40000000      -0.10000000       0.10000000 </v>
   <v>       0.50000000      -0.10000000       0.10000000 </v>
   <v>      -0.40000000      -0.10000000       0.10000000 </v>
   <v>      -0.30000000      -0.10000000       0.10000000 </v>
   <v>      -0.20000000      -0.10000000       0.10000000 </v>
   <v>      -0.10000000      -0.10000000       0.10000000 </v>
   <v>       0.00000000       0.00000000       0.20000000 </v>
   <v>       0.10000000       0.00000000       0.20000000 </v>
   <v>       0.20000000       0.00000000       0.20000000 </v>
   <v>       0.30000000       0.00000000       0.20000000 </v>
   <v>       0.40000000       0.00000000       0.20000000 </v>
   <v>       0.50000000       0.00000000       0.20000000 </v>
   <v>      -0.40000000       0.00000000       0.20000000 </v>
   <v>      -0.30000000       0.00000000       0.20000000 </v>
   <v>      -0.20000000       0.00000000       0.20000000 </v>
   <v>      -0.10000000       0.00000000       0.20000000 </v>
   <v>       0.00000000       0.10000000       0.20000000 </v>
   <v>       0.10000000       0.10000000       0.20000000 </v>
   <v>       0.20000000       0.10000000       0.20000000 </v>
   <v>       0.30000000       0.10000000       0.20000000 </v>
   <v>       0.40000000       0.10000000       0.20000000 </v>
   <v>       0.50000000       0.10000000       0.20000000 </v>
   <v>      -0.40000000       0.10000000       0.20000000 </v>
   <v>      -0.30000000       0.10000000       0.20000000 </v>
   <v>      -0.20000000       0.10000000       0.20000000 </v>
   <v>      -0.10000000       0.10000000       0.20000000 </v>
   <v>       0.00000000       0.20000000       0.20000000 </v>
   <v>       0.10000000       0.20000000       0.20000000 </v>
   <v>       0.20000000       0.20000000       0.20000000 </v>
   <v>       0.30000000       0.20000000       0.20000000 </v>
   <v>       0.40000000       0.20000000       0.20000000 </v>
   <v>       0.50000000       0.20000000       0.20000000 </v>
   <v>      -0.40000000       0.20000000       0.20000000 </v>
   <v>      -0.30000000       0.20000000       0.20000000 </v>
   <v>      -0.20000000       0.20000000       0.20000000 </v>
   <v>      -0.10000000       0.20000000       0.20000000 </v>
   <v>       0.00000000       0.30000000       0.20000000 </v>
   <v>       0.10000000       0.30000000       0.20000000 </v>
   <v>       0.20000000       0.30000000       0.20000000 </v>
   <v>       0.30000000       0.30000000       0.20000000 </v>
   <v>       0.40000000       0.30000000       0.20000000 </v>
   <v>       0.50000000       0.30000000       0.20000000 </v>
   <v>      -0.40000000       0.30000000       0.20000000 </v>
   <v>      -0.30000000       0.30000000       0.20000000 </v>
   <v>      -0.20000000       0.30000000       0.20000000 </v>
   <v>      -0.10000000       0.30000000       0.20000000 </v>
   <v>       0.00000000       0.40000000       0.20000000 </v>
   <v>       0.10000000       0.40000000       0.20000000 </v>
   <v>       0.20000000       0.40000000       0.20000000 </v>
   <v>       0.30000000       0.40000000       0.20000000 </v>
   <v>       0.40000000       0.40000000       0.20000000 </v>
   <v>       0.50000000       0.40000000       0.20000000 </v>
   <v>      -0.40000000       0.40000000       0.20000000 </v>
   <v>      -0.30000000       0.40000000       0.20000000 </v>
   <v>      -0.20000000       0.40000000       0.20000000 </v>
   <v>      -0.10000000       0.40000000       0.20000000 </v>
   <v>       0.00000000       0.50000000       0.20000000 </v>
   <v>       0.10000000       0.50000000       0.20000000 </v>
   <v>       0.20000000       0.50000000       0.20000000 </v>
   <v>       0.30000000       0.50000000       0.20000000 </v>
   <v>       0.40000000       0.50000000       0.20000000 </v>
   <v>       0.50000000       0.50000000       0.20000000 </v>
   <v>      -0.40000000       0.50000000       0.20000000 </v>
   <v>      -0.30000000       0.50000000       0.20000000 </v>
   <v>      -0.20000000       0.50000000       0.20000000 </v>
   <v>      -0.10000000       0.50000000       0.20000000 </v>
   <v>       0.00000000      -0.40000000       0.20000000 </v>
   <v>       0.10000000      -0.40000000       0.20000000 </v>
   <v>       0.20000000      -0.40000000       0.20000000 </v>
   <v>       0.30000000      -0.40000000       0.20000000 </v>
   <v>       0.40000000      -0.40000000       0.20000000 </v>
   <v>       0.50000000      -0.40000000       0.20000000 </v>
   <v>      -0.40000000      -0.40000000       0.20000000 </v>
   <v>      -0.30000000      -0.40000000       0.20000000 </v>
   <v>      -0.20000000      -0.40000000       0.20000000 </v>
   <v>      -0.10000000      -0.40000000       0.20000000 </v>
   <v>       0.00000000      -0.30000000       0.20000000 </v>
   <v>       0.10000000      -0.30000000       0.20000000 </v>
   <v>       0.20000000      -0.30000000       0.20000000 </v>
   <v>       0.30000000      -0.30000000       0.20000000 </v>
   <v>       0.40000000      -0.30000000       0.20000000 </v>
   <v>       0.50000000      -0.30000000       0.20000000 </v>
   <v>      -0.40000000      -0.30000000       0.20000000 </v>
   <v>      -0.30000000      -0.30000000       0.20000000 </v>
   <v>      -0.20000000      -0.30000000       0.20000000 </v>
   <v>      -0.10000000      -0.30000000       0.20000000 </v>
   <v>       0.00000000      -0.20000000       0.20000000 </v>
   <v>       0.10000000      -0.20000000       0.20000000 </v>
   <v>       0.20000000      -0.20000000       0.20000000 </v>
   <v>       0.30000000      -0.20000000       0.20000000 </v>
   <v>       0.40000000      -0.20000000       0.20000000 </v>
   <v>       0.50000000      -0.20000000       0.20000000 </v>
   <v>      -0.40000000      -0.20000000       0.20000000 </v>
   <v>      -0.30000000      -0.20000000       0.20000000 </v>
   <v>      -0.20000000      -0.20000000       0.20000000 </v>
   <v>      -0.10000000      -0.20000000       0.20000000 </v>
   <v>       0.00000000      -0.10000000       0.20000000 </v>
   <v>       0.10000000      -0.10000000       0.20000000 </v>
   <v>       0.20000000      -0.10000000       0.20000000 </v>
   <v>       0.30000000      -0.10000000       0.20000000 </v>
   <v>       0.40000000      -0.10000000       0.20000000 </v>
   <v>       0.50000000      -0.10000000       0.20000000 </v>
   <v>      -0.40000000      -0.10000000       0.20000000 </v>
   <v>      -0.30000000      -0.10000000       0.20000000 </v>
   <v>      -0.20000000      -0.10000000       0.20000000 </v>
   <v>      -0.10000000      -0.10000000       0.20000000 </v>
   <v>       0.00000000       0.00000000       0.30000000 </v>
   <v>       0.10000000       0.00000000       0.30000000 </v>
   <v>       0.20000000       0.00000000       0.30000000 </v>
   <v>       0.30000000       0.00000000       0.30000000 </v>
   <v>       0.40000000       0.00000000       0.30000000 </v>
   <v>       0.50000000       0.00000000       0.30000000 </v>
   <v>      -0.40000000       0.00000000       0.30000000 </v>
   <v>      -0.30000000       0.00000000       0.30000000 </v>
   <v>      -0.20000000       0.00000000       0.30000000 </v>
   <v>      -0.10000000       0.00000000       0.30000000 </v>
   <v>       0.00000000       0.10000000       0.30000000 </v>
   <v>       0.10000000       0.10000000       0.30000000 </v>
   <v>       0.20000000       0.10000000       0.30000000 </v>
   <v>       0.30000000       0.10000000       0.30000000 </v>
   <v>       0.40000000       0.10000000       0.30000000 </v>
   <v>       0.50000000       0.10000000       0.30000000 </v>
   <v>      -0.40000000       0.10000000       0.30000000 </v>
   <v>      -0.30000000       0.10000000       0.30000000 </v>
   <v>      -0.20000000       0.10000000       0.30000000 </v>
   <v>      -0.10000000       0.10000000       0.30000000 </v>
   <v>       0.00000000       0.20000000       0.30000000 </v>
   <v>       0.10000000       0.20000000       0.30000000 </v>
   <v>       0.20000000       0.20000000       0.30000000 </v>
   <v>       0.30000000       0.20000000       0.30000000 </v>
   <v>       0.40000000       0.20000000       0.30000000 </v>
   <v>       0.50000000       0.20000000       0.30000000 </v>
   <v>      -0.40000000       0.20000000       0.30000000 </v>
   <v>      -0.30000000       0.20000000       0.30000000 </v>
   <v>      -0.20000000       0.20000000       0.30000000 </v>
   <v>      -0.10000000       0.20000000       0.30000000 </v>
   <v>       0.00000000       0.30000000       0.30000000 </v>
   <v>       0.10000000       0.30000000       0.30000000 </v>
   <v>       0.20000000       0.30000000       0.30000000 </v>
   <v>       0.30000000       0.30000000       0.30000000 </v>
   <v>       0.40000000       0.30000000       0.30000000 </v>
   <v>       0.50000000       0.30000000       0.30000000 </v>
   <v>      -0.40000000       0.30000000       0.30000000 </v>
   <v>      -0.30000000       0.30000000       0.30000000 </v>
   <v>      -0.20000000       0.30000000       0.30000000 </v>
   <v>      -0.10000000       0.30000000       0.30000000 </v>
   <v>       0.00000000       0.40000000       0.30000000 </v>
   <v>       0.10000000       0.40000000       0.30000000 </v>
   <v>       0.20000000       0.40000000       0.30000000 </v>
   <v>       0.30000000       0.40000000       0.30000000 </v>
   <v>       0.40000000       0.40000000       0.30000000 </v>
   <v>       0.50000000       0.40000000       0.30000000 </v>
   <v>      -0.40000000       0.40000000       0.30000000 </v>
   <v>      -0.30000000       0.40000000       0.30000000 </v>
   <v>      -0.20000000       0.40000000       0.30000000 </v>
   <v>      -0.10000000       0.40000000       0.30000000 </v>
   <v>       0.00000000       0.50000000       0.30000000 </v>
   <v>       0.10000000       0.50000000       0.30000000 </v>
   <v>       0.20000000       0.50000000       0.30000000 </v>
   <v>       0.30000000       0.50000000       0.30000000 </v>
   <v>       0.40000000       0.50000000       0.30000000 </v>
   <v>       0.50000000       0.50000000       0.30000000 </v>
   <v>      -0.40000000       0.50000000       0.30000000 </v>
   <v>      -0.30000000       0.50000000       0.30000000 </v>
   <v>      -0.20000000       0.50000000       0.30000000 </v>
   <v>      -0.10000000       0.50000000       0.30000000 </v>
   <v>       0.00000000      -0.40000000       0.30000000 </v>
   <v>       0.10000000      -0.40000000       0.30000000 </v>
   <v>       0.20000000      -0.40000000       0.30000000 </v>
   <v>       0.30000000      -0.40000000       0.30000000 </v>
   <v>       0.40000000      -0.40000000       0.30000000 </v>
   <v>       0.50000000      -0.40000000       0.30000000 </v>
   <v>      -0.40000000      -0.40000000       0.30000000 </v>
   <v>      -0.30000000      -0.40000000       0.30000000 </v>
   <v>      -0.20000000      -0.40000000       0.30000000 </v>
   <v>      -0.10000000      -0.40000000       0.30000000 </v>
   <v>       0.00000000      -0.30000000       0.30000000 </v>
   <v>       0.10000000      -0.30000000       0.30000000 </v>
   <v>       0.20000000      -0.30000000       0.30000000 </v>
   <v>       0.30000000      -0.30000000       0.30000000 </v>
   <v>       0.40000000      -0.30000000       0.30000000 </v>
   <v>       0.50000000      -0.30000000       0.30000000 </v>
   <v>      -0.40000000      -0.30000000       0.30000000 </v>
   <v>      -0.30000000      -0.30000000       0.30000000 </v>
   <v>      -0.20000000      -0.30000000       0.30000000 </v>
   <v>      -0.10000000      -0.30000000       0.30000000 </v>
   <v>       0.00000000      -0.20000000       0.30000000 </v>
   <v>       0.10000000      -0.20000000       0.30000000 </v>
   <v>       0.20000000      -0.20000000       0.30000000 </v>
   <v>       0.30000000      -0.20000000       0.30000000 </v>
   <v>       0.40000000      -0.20000000       0.30000000 </v>
   <v>       0.50000000      -0.20000000       0.30000000 </v>
   <v>      -0.40000000      -0.20000000       0.30000000 </v>
   <v>      -0.30000000      -0.20000000       0.30000000 </v>
   <v>      -0.20000000      -0.20000000       0.30000000 </v>
   <v>      -0.10000000      -0.20000000       0.30000000 </v>
   <v>       0.00000000      -0.10000000       0.30000000 </v>
   <v>       0.10000000      -0.10000000       0.30000000 </v>
   <v>       0.20000000      -0.10000000       0.30000000 </v>
   <v>       0.30000000      -0.10000000       0.30000000 </v>
   <v>       0.40000000      -0.10000000       0.30000000 </v>
   <v>       0.50000000      -0.10000000       0.30000000 </v>
   <v>      -0.40000000      -0.10000000       0.30000000 </v>
   <v>      -0.30000000      -0.10000000       0.30000000 </v>
   <v>      -0.20000000      -0.10000000       0.30000000 </v>
   <v>      -0.10000000      -0.10000000       0.30000000 </v>
   <v>       0.00000000       0.00000000       0.40000000 </v>
   <v>       0.10000000       0.00000000       0.40000000 </v>
   <v>       0.20000000       0.00000000       0.40000000 </v>
   <v>       0.30000000       0.00000000       0.40000000 </v>
   <v>       0.40000000       0.00000000       0.40000000 </v>
   <v>       0.50000000       0.00000000       0.40000000 </v>
   <v>      -0.40000000       0.00000000       0.40000000 </v>
   <v>      -0.30000000       0.00000000       0.40000000 </v>
   <v>      -0.20000000       0.00000000       0.40000000 </v>
   <v>      -0.10000000       0.00000000       0.40000000 </v>
   <v>       0.00000000       0.10000000       0.40000000 </v>
   <v>       0.10000000       0.10000000       0.40000000 </v>
   <v>       0.20000000       0.10000000       0.40000000 </v>
   <v>       0.30000000       0.10000000       0.40000000 </v>
   <v>       0.40000000       0.10000000       0.40000000 </v>
   <v>       0.50000000       0.10000000       0.40000000 </v>
   <v>      -0.40000000       0.10000000       0.40000000 </v>
   <v>      -0.30000000       0.10000000       0.40000000 </v>
   <v>      -0.20000000       0.10000000       0.40000000 </v>
   <v>      -0.10000000       0.10000000       0.40000000 </v>
   <v>       0.00000000       0.20000000       0.40000000 </v>
   <v>       0.10000000       0.20000000       0.40000000 </v>
   <v>       0.20000000       0.20000000       0.40000000 </v>
   <v>       0.30000000       0.20000000       0.40000000 </v>
   <v>       0.40000000       0.20000000       0.40000000 </v>
   <v>       0.50000000       0.20000000       0.40000000 </v>
   <v>      -0.40000000       0.20000000       0.40000000 </v>
   <v>      -0.30000000       0.20000000       0.40000000 </v>
   <v>      -0.20000000       0.20000000       0.40000000 </v>
   <v>      -0.10000000       0.20000000       0.40000000 </v>
   <v>       0.00000000       0.30000000       0.40000000 </v>
   <v>       0.10000000       0.30000000       0.40000000 </v>
   <v>       0.20000000       0.30000000       0.40000000 </v>
   <v>       0.30000000       0.30000000       0.40000000 </v>
   <v>       0.40000000       0.30000000       0.40000000 </v>
   <v>       0.50000000       0.30000000       0.40000000 </v>
   <v>      -0.40000000       0.30000000       0.40000000 </v>
   <v>      -0.30000000       0.30000000       0.40000000 </v>
   <v>      -0.20000000       0.30000000       0.40000000 </v>
   <v>      -0.10000000       0.30000000       0.40000000 </v>
   <v>       0.00000000       0.40000000       0.40000000 </v>
   <v>       0.10000000       0.40000000       0.40000000 </v>
   <v>       0.20000000       0.40000000       0.40000000 </v>
   <v>       0.30000000       0.40000000       0.40000000 </v>
   <v>       0.40000000       0.40000000       0.40000000 </v>
   <v>       0.50000000       0.40000000       0.40000000 </v>
   <v>      -0.40000000       0.40000000       0.40000000 </v>
   <v>      -0.30000000       0.40000000       0.40000000 </v>
   <v>      -0.20000000       0.40000000       0.40000000 </v>
   <v>      -0.10000000       0.40000000       0.40000000 </v>
   <v>       0.00000000       0.50000000       0.40000000 </v>
   <v>       0.10000000       0.50000000       0.40000000 </v>
   <v>       0.20000000       0.50000000       0.40000000 </v>
   <v>       0.30000000       0.50000000       0.40000000 </v>
   <v>       0.40000000       0.50000000       0.40000000 </v>
   <v>       0.50000000       0.50000000       0.40000000 </v>
   <v>      -0.40000000       0.50000000       0.40000000 </v>
   <v>      -0.30000000       0.50000000       0.40000000 </v>
   <v>      -0.20000000       0.50000000       0.40000000 </v>
   <v>      -0.10000000       0.50000000       0.40000000 </v>
   <v>       0.00000000      -0.40000000       0.40000000 </v>
   <v>       0.10000000      -0.40000000       0.40000000 </v>
   <v>       0.20000000      -0.40000000       0.40000000 </v>
   <v>       0.30000000      -0.40000000       0.40000000 </v>
   <v>       0.40000000      -0.40000000       0.40000000 </v>
   <v>       0.50000000      -0.40000000       0.40000000 </v>
   <v>      -0.40000000      -0.40000000       0.40000000 </v>
   <v>      -0.30000000      -0.40000000       0.40000000 </v>
   <v>      -0.20000000      -0.40000000       0.40000000 </v>
   <v>      -0.10000000      -0.40000000       0.40000000 </v>
   <v>       0.00000000      -0.30000000       0.40000000 </v>
   <v>       0.10000000      -0.30000000       0.40000000 </v>
   <v>       0.20000000      -0.30000000       0.40000000 </v>
   <v>       0.30000000      -0.30000000       0.40000000 </v>
   <v>       0.40000000      -0.30000000       0.40000000 </v>
   <v>       0.50000000      -0.30000000       0.40000000 </v>
   <v>      -0.40000000      -0.30000000       0.40000000 </v>
   <v>      -0.30000000      -0.30000000       0.40000000 </v>
   <v>      -0.20000000      -0.30000000       0.40000000 </v>
   <v>      -0.10000000      -0.30000000       0.40000000 </v>
   <v>       0.00000000      -0.20000000       0.40000000 </v>
   <v>       0.10000000      -0.20000000       0.40000000 </v>
   <v>       0.20000000      -0.20000000       0.40000000 </v>
   <v>       0.30000000      -0.20000000       0.40000000 </v>
   <v>       0.40000000      -0.20000000       0.40000000 </v>
   <v>       0.50000000      -0.20000000       0.40000000 </v>
   <v>      -0.40000000      -0.20000000       0.40000000 </v>
   <v>      -0.30000000      -0.20000000       0.40000000 </v>
   <v>      -0.20000000      -0.20000000       0.40000000 </v>
   <v>      -0.10000000      -0.20000000       0.40000000 </v>
   <v>       0.00000000      -0.10000000       0.40000000 </v>
   <v>       0.10000000      -0.10000000       0.40000000 </v>
   <v>       0.20000000      -0.10000000       0.40000000 </v>
   <v>       0.30000000      -0.10000000       0.40000000 </v>
   <v>       0.40000000      -0.10000000       0.40000000 </v>
   <v>       0.50000000      -0.10000000       0.40000000 </v>
   <v>      -0.40000000      -0.10000000       0.40000000 </v>
   <v>      -0.30000000      -0.10000000       0.40000000 </v>
   <v>      -0.20000000      -0.10000000       0.40000000 </v>
   <v>      -0.10000000      -0.10000000       0.40000000 </v>
   <v>       0.00000000       0.00000000       0.50000000 </v>
   <v>       0.10000000       0.00000000       0.50000000 </v>
   <v>       0.20000000       0.00000000       0.50000000 </v>
   <v>       0.30000000       0.00000000       0.50000000 </v>
   <v>       0.40000000       0.00000000       0.50000000 </v>
   <v>       0.50000000       0.00000000       0.50000000 </v>
   <v>       0.00000000       0.10000000       0.50000000 </v>
   <v>       0.10000000       0.10000000       0.50000000 </v>
   <v>       0.20000000       0.10000000       0.50000000 </v>
   <v>       0.30000000       0.10000000       0.50000000 </v>
   <v>       0.40000000       0.10000000       0.50000000 </v>
   <v>       0.50000000       0.10000000       0.50000000 </v>
   <v>      -0.40000000       0.10000000       0.50000000 </v>
   <v>      -0.30000000       0.10000000       0.50000000 </v>
   <v>      -0.20000000       0.10000000       0.50000000 </v>
   <v>      -0.10000000       0.10000000       0.50000000 </v>
   <v>       0.00000000       0.20000000       0.50000000 </v>
   <v>       0.10000000       0.20000000       0.50000000 </v>
   <v>       0.20000000       0.20000000       0.50000000 </v>
   <v>       0.30000000       0.20000000       0.50000000 </v>
   <v>       0.40000000       0.20000000       0.50000000 </v>
   <v>       0.50000000       0.20000000       0.50000000 </v>
   <v>      -0.40000000       0.20000000       0.50000000 </v>
   <v>      -0.30000000       0.20000000       0.50000000 </v>
   <v>      -0.20000000       0.20000000       0.50000000 </v>
   <v>      -0.10000000       0.20000000       0.50000000 </v>
   <v>       0.00000000       0.30000000       0.50000000 </v>
   <v>       0.10000000       0.30000000       0.50000000 </v>
   <v>       0.20000000       0.30000000       0.50000000 </v>
   <v>       0.30000000       0.30000000       0.50000000 </v>
   <v>       0.40000000       0.30000000       0.50000000 </v>
   <v>       0.50000000       0.30000000       0.50000000 </v>
   <v>      -0.40000000       0.30000000       0.50000000 </v>
   <v>      -0.30000000       0.30000000       0.50000000 </v>
   <v>      -0.20000000       0.30000000       0.50000000 </v>
   <v>      -0.10000000       0.30000000       0.50000000 </v>
   <v>       0.00000000       0.40000000       0.50000000 </v>
   <v>       0.10000000       0.40000000       0.50000000 </v>
   <v>       0.20000000       0.40000000       0.50000000 </v>
   <v>       0.30000000       0.40000000       0.50000000 </v>
   <v>       0.40000000       0.40000000       0.50000000 </v>
   <v>       0.50000000       0.40000000       0.50000000 </v>
   <v>      -0.40000000       0.40000000       0.50000000 </v>
   <v>      -0.30000000       0.40000000       0.50000000 </v>
   <v>      -0.20000000       0.40000000       0.50000000 </v>
   <v>      -0.10000000       0.40000000       0.50000000 </v>
   <v>       0.00000000       0.50000000       0.50000000 </v>
   <v>       0.10000000       0.50000000       0.50000000 </v>
   <v>       0.20000000       0.50000000       0.50000000 </v>
   <v>       0.30000000       0.50000000       0.50000000 </v>
   <v>       0.40000000       0.50000000       0.50000000 </v>
   <v>       0.50000000       0.50000000       0.50000000 </v>
  </varray>
  <varray name="weights" >
   <v>       0.00100000 </v>
   <v>       0.00200000 </v>
   <v>       0.00200000 </v>
   <v>       0.00200000 </v>
   <v>       0.00200000 </v>
   <v>       0.00100000 </v>
   <v>       0.00200000 </v>
   <v>       0.00200000 </v>
   <v>       0.00200000 </v>
   <v>       0.00200000 </v>
   <v>       0.00200000 </v>
   <v>       0.00200000 </v>
   <v>       0.00200000 </v>
   <v>       0.00200000 </v>
   <v>       0.00200000 </v>
   <v>       0.00200000 </v>
   <v>       0.00200000 </v>
   <v>       0.00200000 </v>
   <v>       0.00200000 </v>
   <v>       0.00200000 </v>
   <v>       0.00200000 </v>
   <v>       0.00200000 </v>
   <v>       0.00200000 </v>
   <v>       0.00200000 </v>
   <v>       0.00200000 </v>
   <v>       0.00200000 </v>
   <v>       0.00200000 </v>
   <v>       0.00200000 </v>
   <v>       0.00200000 </v>
   <v>       0.00200000 </v>
   <v>       0.00200000 </v>
   <v>       0.00200000 </v>
   <v>       0.00200000 </v>
   <v>       0.00200000 </v>
   <v>       0.00200000 </v>
   <v>       0.00200000 </v>
   <v>       0.00200000 </v>
   <v>       0.00200000 </v>
   <v>       0.00200000 </v>
   <v>       0.00200000 </v>
   <v>       0.00200000 </v>
   <v>       0.00200000 </v>
   <v>       0.00200000 </v>
   <v>       0.00200000 </v>
   <v>       0.00200000 </v>
   <v>       0.00200000 </v>
   <v>       0.00100000 </v>
   <v>       0.00200000 </v>
   <v>       0.00200000 </v>
   <v>       0.00200000 </v>
   <v>       0.00200000 </v>
   <v>       0.00100000 </v>
   <v>       0.00200000 </v>
   <v>       0.00200000 </v>
   <v>       0.00200000 </v>
   <v>       0.00200000 </v>
   <v>       0.00200000 </v>
   <v>       0.00200000 </v>
   <v>       0.00200000 </v>
   <v>       0.00200000 </v>
   <v>       0.00200000 </v>
   <v>       0.00200000 </v>
   <v>       0.00200000 </v>
   <v>       0.00200000 </v>
   <v>       0.00200000 </v>
   <v>       0.00200000 </v>
   <v>       0.00200000 </v>
   <v>       0.00200000 </v>
   <v>       0.00200000 </v>
   <v>       0.00200000 </v>
   <v>       0.00200000 </v>
   <v>       0.00200000 </v>
   <v>       0.00200000 </v>
   <v>       0.00200000 </v>
   <v>       0.00200000 </v>
   <v>       0.00200000 </v>
   <v>       0.00200000 </v>
   <v>       0.00200000 </v>
   <v>       0.00200000 </v>
   <v>       0.00200000 </v>
   <v>       0.00200000 </v>
   <v>       0.00200000 </v>
   <v>       0.00200000 </v>
   <v>       0.00200000 </v>
   <v>       0.00200000 </v>
   <v>       0.00200000 </v>
   <v>       0.00200000 </v>
   <v>       0.00200000 </v>
   <v>       0.00200000 </v>
   <v>       0.00200000 </v>
   <v>       0.00200000 </v>
   <v>       0.00200000 </v>
   <v>       0.00200000 </v>
   <v>       0.00200000 </v>
   <v>       0.00200000 </v>
   <v>       0.00200000 </v>
   <v>       0.00200000 </v>
   <v>       0.00200000 </v>
   <v>       0.00200000 </v>
   <v>       0.00200000 </v>
   <v>       0.00200000 </v>
   <v>       0.00200000 </v>
   <v>       0.00200000 </v>
   <v>       0.00200000 </v>
   <v>       0.00200000 </v>
   <v>       0.00200000 </v>
   <v>       0.00200000 </v>
   <v>       0.00200000 </v>
   <v>       0.00200000 </v>
   <v>       0.00200000 </v>
   <v>       0.00200000 </v>
   <v>       0.00200000 </v>
   <v>       0.00200000 </v>
   <v>       0.00200000 </v>
   <v>       0.00200000 </v>
   <v>       0.00200000 </v>
   <v>       0.00200000 </v>
   <v>       0.00200000 </v>
   <v>       0.00200000 </v>
   <v>       0.00200000 </v>
   <v>       0.00200000 </v>
   <v>       0.00200000 </v>
   <v>       0.00200000 </v>
   <v>       0.00200000 </v>
   <v>       0.00200000 </v>
   <v>       0.00200000 </v>
   <v>       0.00200000 </v>
   <v>       0.00200000 </v>
   <v>       0.00200000 </v>
   <v>       0.00200000 </v>
   <v>       0.00200000 </v>
   <v>       0.00200000 </v>
   <v>       0.00200000 </v>
   <v>       0.00200000 </v>
   <v>       0.00200000 </v>
   <v>       0.00200000 </v>
   <v>       0.00200000 </v>
   <v>       0.00200000 </v>
   <v>       0.00200000 </v>
   <v>       0.00200000 </v>
   <v>       0.00200000 </v>
   <v>       0.00200000 </v>
   <v>       0.00200000 </v>
   <v>       0.00200000 </v>
   <v>       0.00200000 </v>
   <v>       0.00200000 </v>
   <v>       0.00200000 </v>
   <v>       0.00200000 </v>
   <v>       0.00200000 </v>
   <v>       0.00200000 </v>
   <v>       0.00200000 </v>
   <v>       0.00200000 </v>
   <v>       0.00200000 </v>
   <v>       0.00200000 </v>
   <v>       0.00200000 </v>
   <v>       0.00200000 </v>
   <v>       0.00200000 </v>
   <v>       0.00200000 </v>
   <v>       0.00200000 </v>
   <v>       0.00200000 </v>
   <v>       0.00200000 </v>
   <v>       0.00200000 </v>
   <v>       0.00200000 </v>
   <v>       0.00200000 </v>
   <v>       0.00200000 </v>
   <v>       0.00200000 </v>
   <v>       0.00200000 </v>
   <v>       0.00200000 </v>
   <v>       0.00200000 </v>
   <v>       0.00200000 </v>
   <v>       0.00200000 </v>
   <v>       0.00200000 </v>
   <v>       0.00200000 </v>
   <v>       0.00200000 </v>
   <v>       0.00200000 </v>
   <v>       0.00200000 </v>
   <v>       0.00200000 </v>
   <v>       0.00200000 </v>
   <v>       0.00200000 </v>
   <v>       0.00200000 </v>
   <v>       0.00200000 </v>
   <v>       0.00200000 </v>
   <v>       0.00200000 </v>
   <v>       0.00200000 </v>
   <v>       0.00200000 </v>
   <v>       0.00200000 </v>
   <v>       0.00200000 </v>
   <v>       0.00200000 </v>
   <v>       0.00200000 </v>
   <v>       0.00200000 </v>
   <v>       0.00200000 </v>
   <v>       0.00200000 </v>
   <v>       0.00200000 </v>
   <v>       0.00200000 </v>
   <v>       0.00200000 </v>
   <v>       0.00200000 </v>
   <v>       0.00200000 </v>
   <v>       0.00200000 </v>
   <v>       0.00200000 </v>
   <v>       0.00200000 </v>
   <v>       0.00200000 </v>
   <v>       0.00200000 </v>
   <v>       0.00200000 </v>
   <v>       0.00200000 </v>
   <v>       0.00200000 </v>
   <v>       0.00200000 </v>
   <v>       0.00200000 </v>
   <v>       0.00200000 </v>
   <v>       0.00200000 </v>
   <v>       0.00200000 </v>
   <v>       0.00200000 </v>
   <v>       0.00200000 </v>
   <v>       0.00200000 </v>
   <v>       0.00200000 </v>
   <v>       0.00200000 </v>
   <v>       0.00200000 </v>
   <v>       0.00200000 </v>
   <v>       0.00200000 </v>
   <v>       0.00200000 </v>
   <v>       0.00200000 </v>
   <v>       0.00200000 </v>
   <v>       0.00200000 </v>
   <v>       0.00200000 </v>
   <v>       0.00200000 </v>
   <v>       0.00200000 </v>
   <v>       0.00200000 </v>
   <v>       0.00200000 </v>
   <v>       0.00200000 </v>
   <v>       0.00200000 </v>
   <v>       0.00200000 </v>
   <v>       0.00200000 </v>
   <v>       0.00200000 </v>
   <v>       0.00200000 </v>
   <v>       0.00200000 </v>
   <v>       0.00200000 </v>
   <v>       0.00200000 </v>
   <v>       0.00200000 </v>
   <v>       0.00200000 </v>
   <v>       0.00200000 </v>
   <v>       0.00200000 </v>
   <v>       0.00200000 </v>
   <v>       0.00200000 </v>
   <v>       0.00200000 </v>
   <v>       0.00200000 </v>
   <v>       0.00200000 </v>
   <v>       0.00200000 </v>
   <v>       0.00200000 </v>
   <v>       0.00200000 </v>
   <v>       0.00200000 </v>
   <v>       0.00200000 </v>
   <v>       0.00200000 </v>
   <v>       0.00200000 </v>
   <v>       0.00200000 </v>
   <v>       0.00200000 </v>
   <v>       0.00200000 </v>
   <v>       0.00200000 </v>
   <v>       0.00200000 </v>
   <v>       0.00200000 </v>
   <v>       0.00200000 </v>
   <v>       0.00200000 </v>
   <v>       0.00200000 </v>
   <v>       0.00200000 </v>
   <v>       0.00200000 </v>
   <v>       0.00200000 </v>
   <v>       0.00200000 </v>
   <v>       0.00200000 </v>
   <v>       0.00200000 </v>
   <v>       0.00200000 </v>
   <v>       0.00200000 </v>
   <v>       0.00200000 </v>
   <v>       0.00200000 </v>
   <v>       0.00200000 </v>
   <v>       0.00200000 </v>
   <v>       0.00200000 </v>
   <v>       0.00200000 </v>
   <v>       0.00200000 </v>
   <v>       0.00200000 </v>
   <v>       0.00200000 </v>
   <v>       0.00200000 </v>
   <v>       0.00200000 </v>
   <v>       0.00200000 </v>
   <v>       0.00200000 </v>
   <v>       0.00200000 </v>
   <v>       0.00200000 </v>
   <v>       0.00200000 </v>
   <v>       0.00200000 </v>
   <v>       0.00200000 </v>
   <v>       0.00200000 </v>
   <v>       0.00200000 </v>
   <v>       0.00200000 </v>
   <v>       0.00200000 </v>
   <v>       0.00200000 </v>
   <v>       0.00200000 </v>
   <v>       0.00200000 </v>
   <v>       0.00200000 </v>
   <v>       0.00200000 </v>
   <v>       0.00200000 </v>
   <v>       0.00200000 </v>
   <v>       0.00200000 </v>
   <v>       0.00200000 </v>
   <v>       0.00200000 </v>
   <v>       0.00200000 </v>
   <v>       0.00200000 </v>
   <v>       0.00200000 </v>
   <v>       0.00200000 </v>
   <v>       0.00200000 </v>
   <v>       0.00200000 </v>
   <v>       0.00200000 </v>
   <v>       0.00200000 </v>
   <v>       0.00200000 </v>
   <v>       0.00200000 </v>
   <v>       0.00200000 </v>
   <v>       0.00200000 </v>
   <v>       0.00200000 </v>
   <v>       0.00200000 </v>
   <v>       0.00200000 </v>
   <v>       0.00200000 </v>
   <v>       0.00200000 </v>
   <v>       0.00200000 </v>
   <v>       0.00200000 </v>
   <v>       0.00200000 </v>
   <v>       0.00200000 </v>
   <v>       0.00200000 </v>
   <v>       0.00200000 </v>
   <v>       0.00200000 </v>
   <v>       0.00200000 </v>
   <v>       0.00200000 </v>
   <v>       0.00200000 </v>
   <v>       0.00200000 </v>
   <v>       0.00200000 </v>
   <v>       0.00200000 </v>
   <v>       0.00200000 </v>
   <v>       0.00200000 </v>
   <v>       0.00200000 </v>
   <v>       0.00200000 </v>
   <v>       0.00200000 </v>
   <v>       0.00200000 </v>
   <v>       0.00200000 </v>
   <v>       0.00200000 </v>
   <v>       0.00200000 </v>
   <v>       0.00200000 </v>
   <v>       0.00200000 </v>
   <v>       0.00200000 </v>
   <v>       0.00200000 </v>
   <v>       0.00200000 </v>
   <v>       0.00200000 </v>
   <v>       0.00200000 </v>
   <v>       0.00200000 </v>
   <v>       0.00200000 </v>
   <v>       0.00200000 </v>
   <v>       0.00200000 </v>
   <v>       0.00200000 </v>
   <v>       0.00200000 </v>
   <v>       0.00200000 </v>
   <v>       0.00200000 </v>
   <v>       0.00200000 </v>
   <v>       0.00200000 </v>
   <v>       0.00200000 </v>
   <v>       0.00200000 </v>
   <v>       0.00200000 </v>
   <v>       0.00200000 </v>
   <v>       0.00200000 </v>
   <v>       0.00200000 </v>
   <v>       0.00200000 </v>
   <v>       0.00200000 </v>
   <v>       0.00200000 </v>
   <v>       0.00200000 </v>
   <v>       0.00200000 </v>
   <v>       0.00200000 </v>
   <v>       0.00200000 </v>
   <v>       0.00200000 </v>
   <v>       0.00200000 </v>
   <v>       0.00200000 </v>
   <v>       0.00200000 </v>
   <v>       0.00200000 </v>
   <v>       0.00200000 </v>
   <v>       0.00200000 </v>
   <v>       0.00200000 </v>
   <v>       0.00200000 </v>
   <v>       0.00200000 </v>
   <v>       0.00200000 </v>
   <v>       0.00200000 </v>
   <v>       0.00200000 </v>
   <v>       0.00200000 </v>
   <v>       0.00200000 </v>
   <v>       0.00200000 </v>
   <v>       0.00200000 </v>
   <v>       0.00200000 </v>
   <v>       0.00200000 </v>
   <v>       0.00200000 </v>
   <v>       0.00200000 </v>
   <v>       0.00200000 </v>
   <v>       0.00200000 </v>
   <v>       0.00200000 </v>
   <v>       0.00200000 </v>
   <v>       0.00200000 </v>
   <v>       0.00200000 </v>
   <v>       0.00200000 </v>
   <v>       0.00200000 </v>
   <v>       0.00200000 </v>
   <v>       0.00200000 </v>
   <v>       0.00200000 </v>
   <v>       0.00200000 </v>
   <v>       0.00200000 </v>
   <v>       0.00200000 </v>
   <v>       0.00200000 </v>
   <v>       0.00200000 </v>
   <v>       0.00200000 </v>
   <v>       0.00200000 </v>
   <v>       0.00200000 </v>
   <v>       0.00200000 </v>
   <v>       0.00200000 </v>
   <v>       0.00200000 </v>
   <v>       0.00200000 </v>
   <v>       0.00200000 </v>
   <v>       0.00200000 </v>
   <v>       0.00200000 </v>
   <v>       0.00200000 </v>
   <v>       0.00200000 </v>
   <v>       0.00200000 </v>
   <v>       0.00200000 </v>
   <v>       0.00200000 </v>
   <v>       0.00200000 </v>
   <v>       0.00200000 </v>
   <v>       0.00200000 </v>
   <v>       0.00200000 </v>
   <v>       0.00200000 </v>
   <v>       0.00200000 </v>
   <v>       0.00200000 </v>
   <v>       0.00200000 </v>
   <v>       0.00200000 </v>
   <v>       0.00200000 </v>
   <v>       0.00200000 </v>
   <v>       0.00200000 </v>
   <v>       0.00200000 </v>
   <v>       0.00200000 </v>
   <v>       0.00200000 </v>
   <v>       0.00200000 </v>
   <v>       0.00200000 </v>
   <v>       0.00200000 </v>
   <v>       0.00200000 </v>
   <v>       0.00200000 </v>
   <v>       0.00200000 </v>
   <v>       0.00200000 </v>
   <v>       0.00200000 </v>
   <v>       0.00200000 </v>
   <v>       0.00200000 </v>
   <v>       0.00200000 </v>
   <v>       0.00200000 </v>
   <v>       0.00200000 </v>
   <v>       0.00200000 </v>
   <v>       0.00200000 </v>
   <v>       0.00100000 </v>
   <v>       0.00200000 </v>
   <v>       0.00200000 </v>
   <v>       0.00200000 </v>
   <v>       0.00200000 </v>
   <v>       0.00100000 </v>
   <v>       0.00200000 </v>
   <v>       0.00200000 </v>
   <v>       0.00200000 </v>
   <v>       0.00200000 </v>
   <v>       0.00200000 </v>
   <v>       0.00200000 </v>
   <v>       0.00200000 </v>
   <v>       0.00200000 </v>
   <v>       0.00200000 </v>
   <v>       0.00200000 </v>
   <v>       0.00200000 </v>
   <v>       0.00200000 </v>
   <v>       0.00200000 </v>
   <v>       0.00200000 </v>
   <v>       0.00200000 </v>
   <v>       0.00200000 </v>
   <v>       0.00200000 </v>
   <v>       0.00200000 </v>
   <v>       0.00200000 </v>
   <v>       0.00200000 </v>
   <v>       0.00200000 </v>
   <v>       0.00200000 </v>
   <v>       0.00200000 </v>
   <v>       0.00200000 </v>
   <v>       0.00200000 </v>
   <v>       0.00200000 </v>
   <v>       0.00200000 </v>
   <v>       0.00200000 </v>
   <v>       0.00200000 </v>
   <v>       0.00200000 </v>
   <v>       0.00200000 </v>
   <v>       0.00200000 </v>
   <v>       0.00200000 </v>
   <v>       0.00200000 </v>
   <v>       0.00200000 </v>
   <v>       0.00200000 </v>
   <v>       0.00200000 </v>
   <v>       0.00200000 </v>
   <v>       0.00200000 </v>
   <v>       0.00200000 </v>
   <v>       0.00100000 </v>
   <v>       0.00200000 </v>
   <v>       0.00200000 </v>
   <v>       0.00200000 </v>
   <v>       0.00200000 </v>
   <v>       0.00100000 </v>
  </varray>
 </kpoints>
 <parameters>
  <separator name="general" >
   <i type="string" name="SYSTEM">ice</i>
   <i type="logical" name="LCOMPAT"> F  </i>
  </separator>
  <separator name="electronic" >
   <i type="string" name="PREC">normal</i>
   <i name="ENMAX">    400.00000000</i>
   <i name="ENAUG">    605.39200000</i>
   <i name="EDIFF">      0.00000100</i>
   <i type="int" name="IALGO">    48</i>
   <i type="int" name="IWAVPR">    10</i>
   <i type="int" name="NBANDS">   172</i>
   <i name="NELECT">    248.00000000</i>
   <i type="int" name="TURBO">     0</i>
   <i type="int" name="IRESTART">     0</i>
   <i type="int" name="NREBOOT">     0</i>
   <i type="int" name="NMIN">     0</i>
   <i name="EREF">      0.00000000</i>
   <separator name="electronic smearing" >
    <i type="int" name="ISMEAR">    -1</i>
    <i name="SIGMA">      0.05000000</i>
    <i name="KSPACING">      0.50000000</i>
    <i type="logical" name="KGAMMA"> T  </i>
   </separator>
   <separator name="electronic projectors" >
    <i type="logical" name="LREAL"> T  </i>
    <v name="ROPT">     -0.00050000     -0.00050000</v>
    <i type="int" name="LMAXPAW">  -100</i>
    <i type="int" name="LMAXMIX">     2</i>
    <i type="logical" name="NLSPLINE"> F  </i>
   </separator>
   <separator name="electronic startup" >
    <i type="int" name="ISTART">     0</i>
    <i type="int" name="ICHARG">     1</i>
    <i type="int" name="INIWAV">     1</i>
   </separator>
   <separator name="electronic spin" >
    <i type="int" name="ISPIN">     1</i>
    <i type="logical" name="LNONCOLLINEAR"> F  </i>
    <v name="MAGMOM">      1.00000000      1.00000000      1.00000000      1.00000000      1.00000000      1.00000000      1.00000000      1.00000000      1.00000000      1.00000000      1.00000000      1.00000000      1.00000000      1.00000000      1.00000000      1.00000000      1.00000000      1.00000000      1.00000000      1.00000000
      1.00000000      1.00000000      1.00000000      1.00000000      1.00000000      1.00000000      1.00000000      1.00000000      1.00000000      1.00000000      1.00000000      1.00000000      1.00000000      1.00000000      1.00000000      1.00000000      1.00000000      1.00000000      1.00000000      1.00000000
      1.00000000      1.00000000      1.00000000      1.00000000      1.00000000      1.00000000      1.00000000      1.00000000      1.00000000      1.00000000      1.00000000      1.00000000      1.00000000      1.00000000      1.00000000      1.00000000      1.00000000      1.00000000      1.00000000      1.00000000
      1.00000000      1.00000000      1.00000000      1.00000000      1.00000000      1.00000000      1.00000000      1.00000000      1.00000000      1.00000000      1.00000000      1.00000000      1.00000000      1.00000000      1.00000000      1.00000000      1.00000000      1.00000000      1.00000000      1.00000000
      1.00000000      1.00000000      1.00000000      1.00000000      1.00000000      1.00000000      1.00000000      1.00000000      1.00000000      1.00000000      1.00000000      1.00000000      1.00000000</v>
    <i name="NUPDOWN">     -1.00000000</i>
    <i type="logical" name="LSORBIT"> F  </i>
    <v name="SAXIS">      0.00000000      0.00000000      1.00000000</v>
    <i type="logical" name="LSPIRAL"> F  </i>
    <v name="QSPIRAL">      0.00000000      0.00000000      0.00000000</v>
    <i type="logical" name="LZEROZ"> F  </i>
   </separator>
   <separator name="electronic exchange-correlation" >
    <i type="logical" name="LASPH"> F  </i>
    <i type="logical" name="LMETAGGA"> F  </i>
   </separator>
   <separator name="electronic convergence" >
    <i type="int" name="NELM">   500</i>
    <i type="int" name="NELMDL">     0</i>
    <i type="int" name="NELMIN">     4</i>
    <i name="ENINI">    400.00000000</i>
    <separator name="electronic convergence detail" >
     <i type="logical" name="LDIAG"> T  </i>
     <i type="logical" name="LSUBROT"> F  </i>
     <i name="WEIMIN">      0.00000000</i>
     <i name="EBREAK">      0.00000000</i>
     <i name="DEPER">      0.30000000</i>
     <i type="int" name="NRMM">     4</i>
     <i name="TIME">      0.40000000</i>
    </separator>
   </separator>
   <separator name="electronic mixer" >
    <i name="AMIX">      0.40000000</i>
    <i name="BMIX">      1.00000000</i>
    <i name="AMIN">      0.10000000</i>
    <i name="AMIX_MAG">      1.60000000</i>
    <i name="BMIX_MAG">      1.00000000</i>
    <separator name="electronic mixer details" >
     <i type="int" name="IMIX">     4</i>
     <i type="logical" name="MIXFIRST"> F  </i>
     <i type="int" name="MAXMIX">    40</i>
     <i name="WC">    100.00000000</i>
     <i type="int" name="INIMIX">     1</i>
     <i type="int" name="MIXPRE">     1</i>
     <i type="int" name="MREMOVE">     5</i>
    </separator>
   </separator>
   <separator name="electronic dipolcorrection" >
    <i type="logical" name="LDIPOL"> F  </i>
    <i type="logical" name="LMONO"> F  </i>
    <i type="int" name="IDIPOL">     0</i>
    <i name="EPSILON">      1.00000000</i>
    <v name="DIPOL">   -100.00000000   -100.00000000   -100.00000000</v>
    <i name="EFIELD">      0.00000000</i>
   </separator>
  </separator>
  <separator name="grids" >
   <i type="int" name="NGX">    48</i>
   <i type="int" name="NGY">    48</i>
   <i type="int" name="NGZ">    48</i>
   <i type="int" name="NGXF">    96</i>
   <i type="int" name="NGYF">    96</i>
   <i type="int" name="NGZF">    96</i>
   <i type="logical" name="ADDGRID"> F  </i>
  </separator>
  <separator name="ionic" >
   <i type="int" name="NSW">     0</i>
   <i type="int" name="IBRION">    -1</i>
   <i type="int" name="MDALGO">     0</i>
   <i type="int" name="ISIF">     2</i>
   <i name="PSTRESS">      0.00000000</i>
   <i name="EDIFFG">      0.00001000</i>
   <i type="int" name="NFREE">     0</i>
   <i name="POTIM">      0.50000000</i>
   <i name="SMASS">     -3.00000000</i>
   <i name="SCALEE">      1.00000000</i>
  </separator>
  <separator name="ionic md" >
   <i name="TEBEG">      0.00010000</i>
   <i name="TEEND">      0.00010000</i>
   <i type="int" name="NBLOCK">     1</i>
   <i type="int" name="KBLOCK">     1</i>
   <i type="int" name="NPACO">   256</i>
   <i name="APACO">     16.00000000</i>
  </separator>
  <separator name="symmetry" >
   <i type="int" name="ISYM">     2</i>
   <i name="SYMPREC">      0.00001000</i>
  </separator>
  <separator name="dos" >
   <i type="int" name="LORBIT">     0</i>
   <v name="RWIGS">     -1.00000000     -1.00000000</v>
   <i type="int" name="NEDOS">   301</i>
   <i name="EMIN">     10.00000000</i>
   <i name="EMAX">    -10.00000000</i>
   <i name="EFERMI">      0.00000000</i>
  </separator>
  <separator name="writing" >
   <i type="int" name="NWRITE">     0</i>
   <i type="logical" name="LWAVE"> F  </i>
   <i type="logical" name="LDOWNSAMPLE"> F  </i>
   <i type="logical" name="LCHARG"> F  </i>
   <i type="logical" name="LPARD"> F  </i>
   <i type="logical" name="LVTOT"> F  </i>
   <i type="logical" name="LVHAR"> T  </i>
   <i type="logical" name="LELF"> F  </i>
   <i type="logical" name="LOPTICS"> F  </i>
   <v name="STM">      0.00000000      0.00000000      0.00000000      0.00000000      0.00000000      0.00000000      0.00000000</v>
  </separator>
  <separator name="performance" >
   <i type="int" name="NPAR">     2</i>
   <i type="int" name="NSIM">     4</i>
   <i type="int" name="NBLK">    -1</i>
   <i type="logical" name="LPLANE"> T  </i>
   <i type="logical" name="LSCALAPACK"> T  </i>
   <i type="logical" name="LSCAAWARE"> F  </i>
   <i type="logical" name="LSCALU"> F  </i>
   <i type="logical" name="LASYNC"> F  </i>
   <i type="logical" name="LORBITALREAL"> F  </i>
  </separator>
  <separator name="miscellaneous" >
   <i type="int" name="IDIOT">     3</i>
   <i type="int" name="ISPECIAL">     0</i>
   <i type="logical" name="LMUSIC"> F  </i>
   <v name="POMASS">     16.00000000      1.00000000</v>
   <v name="DARWINR">      0.00000000      0.00000000</v>
   <v name="DARWINV">      1.00000000      1.00000000</v>
   <i type="logical" name="LCORR"> T  </i>
  </separator>
  <i type="logical" name="GGA_COMPAT"> T  </i>
  <i type="logical" name="LBERRY"> F  </i>
  <i type="int" name="ICORELEVEL">     0</i>
  <i type="logical" name="LDAU"> F  </i>
  <i type="int" name="I_CONSTRAINED_M">     0</i>
  <separator name="electronic exchange-correlation" >
   <i type="string" name="GGA">--</i>
   <i type="int" name="VOSKOWN">     0</i>
   <i type="logical" name="LHFCALC"> F  </i>
   <i type="string" name="PRECFOCK"></i>
   <i type="logical" name="LSYMGRAD"> F  </i>
   <i type="logical" name="LHFONE"> F  </i>
   <i type="logical" name="LRHFCALC"> F  </i>
   <i type="logical" name="LTHOMAS"> F  </i>
   <i type="logical" name="LMODELHF"> F  </i>
   <i name="ENCUT4O">     -1.00000000</i>
   <i type="int" name="EXXOEP">     0</i>
   <i type="int" name="FOURORBIT">     0</i>
   <i name="AEXX">      0.00000000</i>
   <i name="HFALPHA">      0.00000000</i>
   <i name="MCALPHA">      0.00000000</i>
   <i name="ALDAX">      1.00000000</i>
   <i name="AGGAX">      1.00000000</i>
   <i name="ALDAC">      1.00000000</i>
   <i name="AGGAC">      1.00000000</i>
   <i type="int" name="NKREDX">     1</i>
   <i type="int" name="NKREDY">     1</i>
   <i type="int" name="NKREDZ">     1</i>
   <i type="logical" name="SHIFTRED"> F  </i>
   <i type="logical" name="ODDONLY"> F  </i>
   <i type="logical" name="EVENONLY"> F  </i>
   <i type="int" name="LMAXFOCK">     0</i>
   <i type="int" name="NMAXFOCKAE">     0</i>
   <i type="logical" name="LFOCKAEDFT"> F  </i>
   <i name="HFSCREEN">      0.00000000</i>
   <i name="HFSCREENC">      0.00000000</i>
   <i type="int" name="NBANDSGWLOW">     0</i>
  </separator>
  <separator name="vdW DFT" >
   <i type="logical" name="LUSE_VDW"> F  </i>
   <i name="Zab_VDW">     -0.84910000</i>
   <i name="PARAM1">      0.12340000</i>
   <i name="PARAM2">      1.00000000</i>
   <i name="PARAM3">      0.00000000</i>
  </separator>
  <separator name="model GW" >
   <i type="int" name="MODEL_GW">     0</i>
   <i name="MODEL_EPS0">      6.09994528</i>
   <i name="MODEL_ALPHA">      1.00000000</i>
  </separator>
  <separator name="linear response parameters" >
   <i type="logical" name="LEPSILON"> F  </i>
   <i type="logical" name="LRPA"> F  </i>
   <i type="logical" name="LNABLA"> F  </i>
   <i type="logical" name="LVEL"> F  </i>
   <i type="int" name="KINTER">     0</i>
   <i name="CSHIFT">      0.10000000</i>
   <i name="OMEGAMAX">     -1.00000000</i>
   <i name="DEG_THRESHOLD">      0.00200000</i>
   <i name="RTIME">     -0.10000000</i>
   <i name="WPLASMAI">      0.00000000</i>
   <v name="DFIELD">      0.00000000      0.00000000      0.00000000</v>
   <v name="WPLASMA">      0.00000000      0.00000000      0.00000000      0.00000000      0.00000000      0.00000000      0.00000000      0.00000000      0.00000000</v>
  </separator>
  <separator name="orbital magnetization" >
   <i type="logical" name="NUCIND"> F  </i>
   <v name="MAGPOS">      0.00000000      0.00000000      0.00000000</v>
   <i type="logical" name="LNICSALL"> T  </i>
   <i type="logical" name="ORBITALMAG"> F  </i>
   <i type="logical" name="LMAGBLOCH"> F  </i>
   <i type="logical" name="LCHIMAG"> F  </i>
   <i type="logical" name="LGAUGE"> T  </i>
   <i type="int" name="MAGATOM">     0</i>
   <v name="MAGDIPOL">      0.00000000      0.00000000      0.00000000</v>
   <v name="AVECCONST">      0.00000000      0.00000000      0.00000000</v>
  </separator>
  <separator name="response functions" >
   <i type="logical" name="LADDER"> F  </i>
   <i type="logical" name="LRPAFORCE"> F  </i>
   <i type="logical" name="LFXC"> F  </i>
   <i type="logical" name="LHARTREE"> T  </i>
   <i type="int" name="IBSE">     0</i>
   <v type="int" name="KPOINT">    -1     0     0     0</v>
   <i type="logical" name="LTCTE"> F  </i>
   <i type="logical" name="LTETE"> F  </i>
   <i type="logical" name="LTRIPLET"> F  </i>
   <i type="logical" name="LFXCEPS"> F  </i>
   <i type="logical" name="LFXHEG"> F  </i>
   <i type="int" name="NATURALO">     2</i>
   <i type="logical" name="L2ORDER"> F  </i>
   <i type="logical" name="LMP2LT"> F  </i>
   <i type="logical" name="LUSEW"> F  </i>
   <i name="ENCUTGW">     -2.00000000</i>
   <i name="ENCUTGWSOFT">     -2.00000000</i>
   <i name="ENCUTLF">     -1.00000000</i>
   <i type="int" name="LMAXMP2">    -1</i>
   <i name="SCISSOR">      0.00000000</i>
   <i type="int" name="NOMEGA">     0</i>
   <i type="int" name="NOMEGAR">     0</i>
   <i type="int" name="NBANDSGW">    -1</i>
   <i type="int" name="NBANDSO">    -1</i>
   <i type="int" name="NBANDSV">    -1</i>
   <i type="int" name="NELM">   500</i>
   <i type="int" name="NELMHF">     1</i>
   <i type="int" name="DIM">     3</i>
   <i type="int" name="ANTIRES">     0</i>
   <i name="OMEGAMAX">    -30.00000000</i>
   <i name="OMEGAMIN">    -30.00000000</i>
   <i name="OMEGATL">   -200.00000000</i>
   <i type="int" name="OMEGAGRID">   140</i>
   <i name="CSHIFT">     -0.10000000</i>
   <i type="logical" name="SELFENERGY"> F  </i>
   <i type="logical" name="LSPECTRAL"> F  </i>
   <i type="logical" name="LSPECTRALGW"> F  </i>
   <i type="logical" name="LSINGLES"> F  </i>
   <i type="logical" name="LFERMIGW"> F  </i>
   <i type="logical" name="ODDONLYGW"> F  </i>
   <i type="logical" name="EVENONLYGW"> F  </i>
   <i type="int" name="NKREDLFX">     1</i>
   <i type="int" name="NKREDLFY">     1</i>
   <i type="int" name="NKREDLFZ">     1</i>
   <i type="int" name="MAXMEM">  2800</i>
   <i type="int" name="TELESCOPE">     0</i>
   <i type="int" name="TAUPAR">     1</i>
   <i type="int" name="OMEGAPAR">    -1</i>
   <i name="LAMBDA">      1.00000000</i>
  </separator>
  <separator name="External order field" >
   <i name="OFIELD_KAPPA">      0.00000000</i>
   <v name="OFIELD_K">      0.00000000      0.00000000      0.00000000</v>
   <i name="OFIELD_Q6_NEAR">      0.00000000</i>
   <i name="OFIELD_Q6_FAR">      0.00000000</i>
   <i name="OFIELD_A">      0.00000000</i>
  </separator>
 </parameters>
 <atominfo>
  <atoms>      93 </atoms>
  <types>       2 </types>
  <array name="atoms" >
   <dimension dim="1">ion</dimension>
   <field type="string">element</field>
   <field type="int">atomtype</field>
   <set>
    <rc><c>O </c><c>   1</c></rc>
    <rc><c>O </c><c>   1</c></rc>
    <rc><c>O </c><c>   1</c></rc>
    <rc><c>O </c><c>   1</c></rc>
    <rc><c>O </c><c>   1</c></rc>
    <rc><c>O </c><c>   1</c></rc>
    <rc><c>O </c><c>   1</c></rc>
    <rc><c>O </c><c>   1</c></rc>
    <rc><c>O </c><c>   1</c></rc>
    <rc><c>O </c><c>   1</c></rc>
    <rc><c>O </c><c>   1</c></rc>
    <rc><c>O </c><c>   1</c></rc>
    <rc><c>O </c><c>   1</c></rc>
    <rc><c>O </c><c>   1</c></rc>
    <rc><c>O </c><c>   1</c></rc>
    <rc><c>O </c><c>   1</c></rc>
    <rc><c>O </c><c>   1</c></rc>
    <rc><c>O </c><c>   1</c></rc>
    <rc><c>O </c><c>   1</c></rc>
    <rc><c>O </c><c>   1</c></rc>
    <rc><c>O </c><c>   1</c></rc>
    <rc><c>O </c><c>   1</c></rc>
    <rc><c>O </c><c>   1</c></rc>
    <rc><c>O </c><c>   1</c></rc>
    <rc><c>O </c><c>   1</c></rc>
    <rc><c>O </c><c>   1</c></rc>
    <rc><c>O </c><c>   1</c></rc>
    <rc><c>O </c><c>   1</c></rc>
    <rc><c>O </c><c>   1</c></rc>
    <rc><c>O </c><c>   1</c></rc>
    <rc><c>O </c><c>   1</c></rc>
    <rc><c>H </c><c>   2</c></rc>
    <rc><c>H </c><c>   2</c></rc>
    <rc><c>H </c><c>   2</c></rc>
    <rc><c>H </c><c>   2</c></rc>
    <rc><c>H </c><c>   2</c></rc>
    <rc><c>H </c><c>   2</c></rc>
    <rc><c>H </c><c>   2</c></rc>
    <rc><c>H </c><c>   2</c></rc>
    <rc><c>H </c><c>   2</c></rc>
    <rc><c>H </c><c>   2</c></rc>
    <rc><c>H </c><c>   2</c></rc>
    <rc><c>H </c><c>   2</c></rc>
    <rc><c>H </c><c>   2</c></rc>
    <rc><c>H </c><c>   2</c></rc>
    <rc><c>H </c><c>   2</c></rc>
    <rc><c>H </c><c>   2</c></rc>
    <rc><c>H </c><c>   2</c></rc>
    <rc><c>H </c><c>   2</c></rc>
    <rc><c>H </c><c>   2</c></rc>
    <rc><c>H </c><c>   2</c></rc>
    <rc><c>H </c><c>   2</c></rc>
    <rc><c>H </c><c>   2</c></rc>
    <rc><c>H </c><c>   2</c></rc>
    <rc><c>H </c><c>   2</c></rc>
    <rc><c>H </c><c>   2</c></rc>
    <rc><c>H </c><c>   2</c></rc>
    <rc><c>H </c><c>   2</c></rc>
    <rc><c>H </c><c>   2</c></rc>
    <rc><c>H </c><c>   2</c></rc>
    <rc><c>H </c><c>   2</c></rc>
    <rc><c>H </c><c>   2</c></rc>
    <rc><c>H </c><c>   2</c></rc>
    <rc><c>H </c><c>   2</c></rc>
    <rc><c>H </c><c>   2</c></rc>
    <rc><c>H </c><c>   2</c></rc>
    <rc><c>H </c><c>   2</c></rc>
    <rc><c>H </c><c>   2</c></rc>
    <rc><c>H </c><c>   2</c></rc>
    <rc><c>H </c><c>   2</c></rc>
    <rc><c>H </c><c>   2</c></rc>
    <rc><c>H </c><c>   2</c></rc>
    <rc><c>H </c><c>   2</c></rc>
    <rc><c>H </c><c>   2</c></rc>
    <rc><c>H </c><c>   2</c></rc>
    <rc><c>H </c><c>   2</c></rc>
    <rc><c>H </c><c>   2</c></rc>
    <rc><c>H </c><c>   2</c></rc>
    <rc><c>H </c><c>   2</c></rc>
    <rc><c>H </c><c>   2</c></rc>
    <rc><c>H </c><c>   2</c></rc>
    <rc><c>H </c><c>   2</c></rc>
    <rc><c>H </c><c>   2</c></rc>
    <rc><c>H </c><c>   2</c></rc>
    <rc><c>H </c><c>   2</c></rc>
    <rc><c>H </c><c>   2</c></rc>
    <rc><c>H </c><c>   2</c></rc>
    <rc><c>H </c><c>   2</c></rc>
    <rc><c>H </c><c>   2</c></rc>
    <rc><c>H </c><c>   2</c></rc>
    <rc><c>H </c><c>   2</c></rc>
    <rc><c>H </c><c>   2</c></rc>
    <rc><c>H </c><c>   2</c></rc>
   </set>
  </array>
  <array name="atomtypes" >
   <dimension dim="1">type</dimension>
   <field type="int">atomspertype</field>
   <field type="string">element</field>
   <field>mass</field>
   <field>valence</field>
   <field type="string">pseudopotential</field>
   <set>
    <rc><c>  31</c><c>O </c><c>     16.00000000</c><c>      6.00000000</c><c>  PAW_PBE O 08Apr2002                   </c></rc>
    <rc><c>  62</c><c>H </c><c>      1.00000000</c><c>      1.00000000</c><c>  PAW_PBE H 15Jun2001                   </c></rc>
   </set>
  </array>
 </atominfo>
 <structure name="initialpos" >
  <crystal>
   <varray name="basis" >
    <v>       9.81490000       0.00000000       0.00000000 </v>
    <v>       0.00000000       9.81490000       0.00000000 </v>
    <v>       0.00000000       0.00000000       9.81490000 </v>
   </varray>
   <i name="volume">    945.49151840 </i>
   <varray name="rec_basis" >
    <v>       0.10188591       0.00000000       0.00000000 </v>
    <v>       0.00000000       0.10188591       0.00000000 </v>
    <v>       0.00000000       0.00000000       0.10188591 </v>
   </varray>
  </crystal>
  <varray name="positions" >
   <v>       0.58007825       0.38460911       0.13049547 </v>
   <v>       0.12678682       0.81065217       0.60808465 </v>
   <v>       0.08636349       0.56304700       0.75225626 </v>
   <v>       0.06976648       0.38309815       0.40746314 </v>
   <v>       0.06954151       0.76404752       0.16706029 </v>
   <v>       0.74868007       0.01863340       0.69936423 </v>
   <v>       0.72029975       0.39280074       0.75736279 </v>
   <v>       0.01370793       0.21352026       0.18370029 </v>
   <v>       0.27985817       0.85774893       0.97801241 </v>
   <v>       0.83990973       0.39263569       0.02211454 </v>
   <v>       0.27231454       0.21278362       0.70574738 </v>
   <v>       0.96295194       0.33092747       0.67114591 </v>
   <v>       0.72686426       0.81642197       0.87132829 </v>
   <v>       0.67680262       0.04388817       0.43445476 </v>
   <v>       0.34579364       0.60987274       0.85027560 </v>
   <v>       0.23183629       0.13718836       0.95067092 </v>
   <v>       0.46618203       0.14060969       0.09200511 </v>
   <v>       0.68321124       0.65365210       0.41884889 </v>
   <v>       0.84399230       0.94896535       0.23728107 </v>
   <v>       0.34175488       0.36316621       0.44007886 </v>
   <v>       0.41295989       0.11879184       0.37907671 </v>
   <v>       0.00387014       0.04610266       0.63075019 </v>
   <v>       0.14530764       0.03631010       0.37328450 </v>
   <v>       0.37380921       0.83351231       0.49986245 </v>
   <v>       0.35358893       0.54351038       0.11275815 </v>
   <v>       0.46558702       0.73509664       0.26201999 </v>
   <v>       0.55480851       0.65211362       0.71194510 </v>
   <v>       0.63735036       0.35655891       0.39870809 </v>
   <v>       0.93459210       0.65359708       0.95178575 </v>
   <v>       0.60185534       0.91056037       0.09829820 </v>
   <v>       0.97184383       0.66475766       0.39946102 </v>
   <v>       0.53392189       0.47011483       0.12172819 </v>
   <v>       0.67847253       0.40687220       0.08189589 </v>
   <v>       0.06793650       0.79717572       0.52857390 </v>
   <v>       0.11333585       0.72500586       0.66863748 </v>
   <v>       0.04911532       0.46629105       0.74899286 </v>
   <v>       0.16984585       0.57384283       0.80112584 </v>
   <v>       0.17233390       0.40691194       0.40749575 </v>
   <v>       0.02922760       0.35278709       0.50127867 </v>
   <v>       0.03964870       0.84964289       0.18904930 </v>
   <v>       0.04867946       0.72110261       0.24917014 </v>
   <v>       0.68359229       0.01474585       0.61904553 </v>
   <v>       0.71982394       0.93860233       0.74848037 </v>
   <v>       0.67690450       0.46130068       0.70385129 </v>
   <v>       0.65027153       0.32434869       0.80607342 </v>
   <v>       0.93805704       0.25654872       0.15035303 </v>
   <v>       0.04599456       0.25845195       0.27862739 </v>
   <v>       0.24892154       0.96659579       0.96885317 </v>
   <v>       0.23119848       0.81359871       0.05802484 </v>
   <v>       0.80436377       0.39975649       0.92926622 </v>
   <v>       0.86107347       0.49410896       0.02345821 </v>
   <v>       0.18111137       0.19562808       0.69138453 </v>
   <v>       0.29520932       0.27447045       0.63237629 </v>
   <v>       0.98620404       0.23785877       0.65628585 </v>
[...]
       <r>   -21.9736    23.4462    30.2402 </r>
       <r>   -21.8579    36.5855    34.4820 </r>
       <r>   -21.7421    34.9001    38.5231 </r>
       <r>   -21.6263    24.3603    41.3451 </r>
       <r>   -21.5105    13.5234    42.9166 </r>
       <r>   -21.3947    21.4389    45.4055 </r>
       <r>   -21.2789    18.2749    47.5302 </r>
       <r>   -21.1631     8.9866    48.5707 </r>
       <r>   -21.0473    14.1809    50.2162 </r>
       <r>   -20.9315    12.9087    51.7169 </r>
       <r>   -20.8157     9.2854    52.7920 </r>
       <r>   -20.6999    12.2521    54.2158 </r>
       <r>   -20.5842    11.5351    55.5557 </r>
       <r>   -20.4684     7.3924    56.4116 </r>
       <r>   -20.3526     9.4950    57.5141 </r>
       <r>   -20.2368     3.8431    57.9651 </r>
       <r>   -20.1210     2.2831    58.2295 </r>
       <r>   -20.0052     8.0488    59.1676 </r>
       <r>   -19.8894     7.8168    60.0727 </r>
       <r>   -19.7736     8.6303    61.0721 </r>
       <r>   -19.6578     6.6783    61.8453 </r>
       <r>   -19.5420     1.1831    61.9838 </r>
       <r>   -19.4263     0.1263    61.9984 </r>
       <r>   -19.3105     0.0000    62.0000 </r>
       <r>   -19.1947     0.0000    62.0000 </r>
       <r>   -19.0789     0.0000    62.0000 </r>
       <r>   -18.9631     0.0000    62.0000 </r>
       <r>   -18.8473     0.0000    62.0000 </r>
       <r>   -18.7315     0.0000    62.0000 </r>
       <r>   -18.6157     0.0000    62.0000 </r>
       <r>   -18.4999     0.0000    62.0000 </r>
       <r>   -18.3841     0.0000    62.0000 </r>
       <r>   -18.2683     0.0000    62.0000 </r>
       <r>   -18.1526     0.0000    62.0000 </r>
       <r>   -18.0368     0.0000    62.0000 </r>
       <r>   -17.9210     0.0000    62.0000 </r>
       <r>   -17.8052     0.0000    62.0000 </r>
       <r>   -17.6894     0.0000    62.0000 </r>
       <r>   -17.5736     0.0000    62.0000 </r>
       <r>   -17.4578     0.0000    62.0000 </r>
       <r>   -17.3420     0.0000    62.0000 </r>
       <r>   -17.2262     0.0000    62.0000 </r>
       <r>   -17.1104     0.0000    62.0000 </r>
       <r>   -16.9947     0.0000    62.0000 </r>
       <r>   -16.8789     0.0000    62.0000 </r>
       <r>   -16.7631     0.0000    62.0000 </r>
       <r>   -16.6473     0.0000    62.0000 </r>
       <r>   -16.5315     0.0000    62.0000 </r>
       <r>   -16.4157     0.0000    62.0000 </r>
       <r>   -16.2999     0.0000    62.0000 </r>
       <r>   -16.1841     0.0000    62.0000 </r>
       <r>   -16.0683     0.0000    62.0000 </r>
       <r>   -15.9525     0.0000    62.0000 </r>
       <r>   -15.8367     0.0000    62.0000 </r>
       <r>   -15.7210     0.0000    62.0000 </r>
       <r>   -15.6052     0.0000    62.0000 </r>
       <r>   -15.4894     0.0000    62.0000 </r>
       <r>   -15.3736     0.0000    62.0000 </r>
       <r>   -15.2578     0.0000    62.0000 </r>
       <r>   -15.1420     0.0000    62.0000 </r>
       <r>   -15.0262     0.0000    62.0000 </r>
       <r>   -14.9104     0.0000    62.0000 </r>
       <r>   -14.7946     0.0000    62.0000 </r>
       <r>   -14.6788     0.0000    62.0000 </r>
       <r>   -14.5631     0.0000    62.0000 </r>
       <r>   -14.4473     0.0000    62.0000 </r>
       <r>   -14.3315     0.0000    62.0000 </r>
       <r>   -14.2157     0.0000    62.0000 </r>
       <r>   -14.0999     0.0000    62.0000 </r>
       <r>   -13.9841     0.0000    62.0000 </r>
       <r>   -13.8683     0.0000    62.0000 </r>
       <r>   -13.7525     0.0000    62.0000 </r>
       <r>   -13.6367     0.0000    62.0000 </r>
       <r>   -13.5209     0.0000    62.0000 </r>
       <r>   -13.4051     0.0000    62.0000 </r>
       <r>   -13.2894     0.0000    62.0000 </r>
       <r>   -13.1736     0.0000    62.0000 </r>
       <r>   -13.0578     0.0000    62.0000 </r>
       <r>   -12.9420     0.0000    62.0000 </r>
       <r>   -12.8262     0.0000    62.0000 </r>
       <r>   -12.7104     0.0000    62.0000 </r>
       <r>   -12.5946     0.0000    62.0000 </r>
       <r>   -12.4788     0.0000    62.0000 </r>
       <r>   -12.3630     0.0000    62.0000 </r>
       <r>   -12.2472     0.0000    62.0000 </r>
       <r>   -12.1315     0.0000    62.0000 </r>
       <r>   -12.0157     0.0080    62.0009 </r>
       <r>   -11.8999     0.0726    62.0093 </r>
       <r>   -11.7841     0.7204    62.0927 </r>
       <r>   -11.6683     5.7521    62.7588 </r>
       <r>   -11.5525    17.4273    64.7767 </r>
       <r>   -11.4367    12.7556    66.2537 </r>
       <r>   -11.3209    10.4850    67.4677 </r>
       <r>   -11.2051     4.4835    67.9925 </r>
       <r>   -11.0893     4.2866    68.4903 </r>
       <r>   -10.9736    11.7569    69.8530 </r>
       <r>   -10.8578    13.6599    71.4352 </r>
       <r>   -10.7420    12.2298    72.8513 </r>
       <r>   -10.6262    12.1729    74.2673 </r>
       <r>   -10.5104    16.9629    76.2314 </r>
       <r>   -10.3946    20.5415    78.6109 </r>
       <r>   -10.2788    27.2578    81.7695 </r>
       <r>   -10.1630    24.0669    84.5573 </r>
       <r>   -10.0472    22.2734    87.1403 </r>
       <r>    -9.9314    19.1446    89.3620 </r>
       <r>    -9.8156    24.2243    92.1706 </r>
       <r>    -9.6999    18.7416    94.3450 </r>
       <r>    -9.5841    19.3979    96.5921 </r>
       <r>    -9.4683    13.3370    98.1384 </r>
       <r>    -9.3525    16.2832   100.0268 </r>
       <r>    -9.2367    31.8599   103.7173 </r>
       <r>    -9.1209    31.6733   107.3868 </r>
       <r>    -9.0051    23.9584   110.1609 </r>
       <r>    -8.8893    20.6758   112.5616 </r>
       <r>    -8.7735    17.6155   114.6055 </r>
       <r>    -8.6577    18.8335   116.7881 </r>
       <r>    -8.5420    17.1636   118.7796 </r>
       <r>    -8.4262    12.5906   120.2402 </r>
       <r>    -8.3104    14.0251   121.8677 </r>
       <r>    -8.1946    14.8245   123.5864 </r>
       <r>    -8.0788    12.7774   125.0680 </r>
       <r>    -7.9630    13.2962   126.6085 </r>
       <r>    -7.8472    10.9845   127.8835 </r>
       <r>    -7.7314    11.5302   129.2202 </r>
       <r>    -7.6156    25.1453   132.1341 </r>
       <r>    -7.4998    22.7956   134.7766 </r>
       <r>    -7.3840    25.3826   137.7156 </r>
       <r>    -7.2683    26.8868   140.8327 </r>
       <r>    -7.1525    18.5933   142.9888 </r>
       <r>    -7.0367    19.6948   145.2730 </r>
       <r>    -6.9209    17.2009   147.2692 </r>
       <r>    -6.8051    19.4594   149.5238 </r>
       <r>    -6.6893    24.6361   152.3798 </r>
       <r>    -6.5735    29.3141   155.7768 </r>
       <r>    -6.4577    27.4843   158.9609 </r>
       <r>    -6.3419    18.6708   161.1271 </r>
       <r>    -6.2261    16.4829   163.0401 </r>
       <r>    -6.1104    16.1880   164.9197 </r>
       <r>    -5.9946    18.4923   167.0624 </r>
       <r>    -5.8788    21.3196   169.5330 </r>
       <r>    -5.7630    19.7156   171.8179 </r>
       <r>    -5.6472    19.1384   174.0366 </r>
       <r>    -5.5314    22.9563   176.6982 </r>
       <r>    -5.4156    25.4419   179.6483 </r>
       <r>    -5.2998    28.1021   182.9035 </r>
       <r>    -5.1840    26.7865   186.0095 </r>
       <r>    -5.0682    29.4491   189.4233 </r>
       <r>    -4.9524    32.3757   193.1765 </r>
       <r>    -4.8367    22.0426   195.7336 </r>
       <r>    -4.7209    18.7665   197.9119 </r>
       <r>    -4.6051    29.1525   201.2936 </r>
       <r>    -4.4893    36.5351   205.5302 </r>
       <r>    -4.3735    42.3776   210.4372 </r>
       <r>    -4.2577    41.7915   215.2800 </r>
       <r>    -4.1419    38.5181   219.7445 </r>
       <r>    -4.0261    38.2270   224.1778 </r>
       <r>    -3.9103    30.7863   227.7512 </r>
       <r>    -3.7945    34.1981   231.7169 </r>
       <r>    -3.6788    33.0270   235.5522 </r>
       <r>    -3.5630    32.8926   239.3635 </r>
       <r>    -3.4472    30.3080   242.8802 </r>
       <r>    -3.3314    17.4042   244.9009 </r>
       <r>    -3.2156    10.1927   246.0870 </r>
       <r>    -3.0998     9.6292   247.2088 </r>
       <r>    -2.9840     5.7997   247.8813 </r>
       <r>    -2.8682     0.9047   247.9878 </r>
       <r>    -2.7524     0.0948   247.9988 </r>
       <r>    -2.6366     0.0000   248.0000 </r>
       <r>    -2.5208     0.0000   248.0000 </r>
       <r>    -2.4051     0.0000   248.0000 </r>
       <r>    -2.2893     0.0000   248.0000 </r>
       <r>    -2.1735     0.0000   248.0000 </r>
       <r>    -2.0577     0.0000   248.0000 </r>
       <r>    -1.9419     0.0000   248.0000 </r>
       <r>    -1.8261     0.0000   248.0000 </r>
       <r>    -1.7103     0.0000   248.0000 </r>
       <r>    -1.5945     0.0000   248.0000 </r>
       <r>    -1.4787     0.0000   248.0000 </r>
       <r>    -1.3629     0.0000   248.0000 </r>
       <r>    -1.2472     0.0000   248.0000 </r>
       <r>    -1.1314     0.0000   248.0000 </r>
       <r>    -1.0156     0.0000   248.0000 </r>
       <r>    -0.8998     0.0000   248.0000 </r>
       <r>    -0.7840     0.0000   248.0000 </r>
       <r>    -0.6682     0.0000   248.0000 </r>
       <r>    -0.5524     0.0000   248.0000 </r>
       <r>    -0.4366     0.0000   248.0000 </r>
       <r>    -0.3208     0.0000   248.0000 </r>
       <r>    -0.2050     0.0000   248.0000 </r>
       <r>    -0.0892     0.0000   248.0000 </r>
       <r>     0.0265     0.0000   248.0000 </r>
       <r>     0.1423     0.0000   248.0000 </r>
       <r>     0.2581     0.0000   248.0000 </r>
       <r>     0.3739     0.0002   248.0000 </r>
       <r>     0.4897     0.0021   248.0003 </r>
       <r>     0.6055     0.0208   248.0027 </r>
       <r>     0.7213     0.1705   248.0224 </r>
       <r>     0.8371     0.7237   248.1062 </r>
       <r>     0.9529     1.4850   248.2782 </r>
       <r>     1.0687     2.2336   248.5368 </r>
       <r>     1.1844     2.9511   248.8786 </r>
       <r>     1.3002     3.2743   249.2579 </r>
       <r>     1.4160     3.2843   249.6385 </r>
       <r>     1.5318     3.3888   250.0313 </r>
       <r>     1.6476     4.0062   250.4957 </r>
       <r>     1.7634     5.0661   251.0828 </r>
       <r>     1.8792     4.9719   251.6590 </r>
       <r>     1.9950     4.5678   252.1885 </r>
       <r>     2.1108     5.7682   252.8571 </r>
       <r>     2.2266     5.7718   253.5263 </r>
       <r>     2.3424     5.4204   254.1546 </r>
       <r>     2.4581     6.2782   254.8825 </r>
       <r>     2.5739     7.2280   255.7205 </r>
       <r>     2.6897     7.7879   256.6230 </r>
       <r>     2.8055     8.4029   257.5969 </r>
       <r>     2.9213     7.2816   258.4411 </r>
       <r>     3.0371     6.9421   259.2461 </r>
       <r>     3.1529     8.2823   260.2065 </r>
       <r>     3.2687     9.2952   261.2841 </r>
       <r>     3.3845     9.5034   262.3852 </r>
       <r>     3.5003     9.6297   263.5015 </r>
       <r>     3.6160    11.8280   264.8724 </r>
       <r>     3.7318    11.9078   266.2529 </r>
       <r>     3.8476    11.3101   267.5637 </r>
       <r>     3.9634    12.7273   269.0391 </r>
       <r>     4.0792    12.5494   270.4946 </r>
       <r>     4.1950    12.6198   271.9571 </r>
       <r>     4.3108    12.1656   273.3680 </r>
       <r>     4.4266    12.9457   274.8689 </r>
       <r>     4.5424    14.2417   276.5198 </r>
       <r>     4.6582    14.5604   278.2077 </r>
       <r>     4.7740    15.6917   280.0266 </r>
       <r>     4.8897    16.2858   281.9146 </r>
       <r>     5.0055    16.2808   283.8019 </r>
       <r>     5.1213    18.0577   285.8951 </r>
       <r>     5.2371    19.3287   288.1361 </r>
       <r>     5.3529    19.1269   290.3534 </r>
       <r>     5.4687    19.2365   292.5833 </r>
       <r>     5.5845    21.6055   295.0877 </r>
       <r>     5.7003    23.3819   297.7982 </r>
       <r>     5.8161    23.9146   300.5700 </r>
       <r>     5.9319    23.7772   303.3265 </r>
       <r>     6.0476    24.4485   306.1607 </r>
       <r>     6.1634    24.9965   309.0588 </r>
       <r>     6.2792    25.0290   311.9605 </r>
       <r>     6.3950    25.4961   314.9165 </r>
       <r>     6.5108    26.2576   317.9604 </r>
       <r>     6.6266    25.2863   320.8924 </r>
       <r>     6.7424    24.8625   323.7748 </r>
       <r>     6.8582    23.9167   326.5488 </r>
       <r>     6.9740    22.5058   329.1586 </r>
       <r>     7.0898    21.8373   331.6913 </r>
       <r>     7.2056    20.7518   334.0981 </r>
       <r>     7.3213    19.9909   336.4161 </r>
       <r>     7.4371    18.8664   338.6041 </r>
       <r>     7.5529    16.8461   340.5579 </r>
       <r>     7.6687    13.8467   342.1644 </r>
       <r>     7.7845     9.7700   343.2987 </r>
       <r>     7.9003     4.5733   343.8310 </r>
       <r>     8.0161     1.1785   343.9698 </r>
       <r>     8.1319     0.2114   343.9961 </r>
       <r>     8.2477     0.0236   343.9997 </r>
       <r>     8.3635     0.0018   344.0000 </r>
       <r>     8.4792     0.0000   344.0000 </r>
       <r>     8.5950     0.0000   344.0000 </r>
       <r>     8.7108     0.0000   344.0000 </r>
       <r>     8.8266     0.0000   344.0000 </r>
       <r>     8.9424     0.0000   344.0000 </r>
       <r>     9.0582     0.0000   344.0000 </r>
       <r>     9.1740     0.0000   344.0000 </r>
       <r>     9.2898     0.0000   344.0000 </r>
       <r>     9.4056     0.0000   344.0000 </r>
       <r>     9.5214     0.0000   344.0000 </r>
       <r>     9.6372     0.0000   344.0000 </r>
      </set>
     </set>
    </array>
   </total>
  </dos>
 </calculation>
 <structure name="finalpos" >
  <crystal>
   <varray name="basis" >
    <v>       9.81490000       0.00000000       0.00000000 </v>
    <v>       0.00000000       9.81490000       0.00000000 </v>
    <v>       0.00000000       0.00000000       9.81490000 </v>
   </varray>
   <i name="volume">    945.49151840 </i>
   <varray name="rec_basis" >
    <v>       0.10188591       0.00000000       0.00000000 </v>
    <v>       0.00000000       0.10188591       0.00000000 </v>
    <v>       0.00000000       0.00000000       0.10188591 </v>
   </varray>
  </crystal>
  <varray name="positions" >
   <v>       0.58007825       0.38460911       0.13049547 </v>
   <v>       0.12678682       0.81065217       0.60808465 </v>
   <v>       0.08636349       0.56304700       0.75225626 </v>
   <v>       0.06976648       0.38309815       0.40746314 </v>
   <v>       0.06954151       0.76404752       0.16706029 </v>
   <v>       0.74868007       0.01863340       0.69936423 </v>
   <v>       0.72029975       0.39280074       0.75736279 </v>
   <v>       0.01370793       0.21352026       0.18370029 </v>
   <v>       0.27985817       0.85774893       0.97801241 </v>
   <v>       0.83990973       0.39263569       0.02211454 </v>
   <v>       0.27231454       0.21278362       0.70574738 </v>
   <v>       0.96295194       0.33092747       0.67114591 </v>
   <v>       0.72686426       0.81642197       0.87132829 </v>
   <v>       0.67680262       0.04388817       0.43445476 </v>
   <v>       0.34579364       0.60987274       0.85027560 </v>
   <v>       0.23183629       0.13718836       0.95067092 </v>
   <v>       0.46618203       0.14060969       0.09200511 </v>
   <v>       0.68321124       0.65365210       0.41884889 </v>
   <v>       0.84399230       0.94896535       0.23728107 </v>
   <v>       0.34175488       0.36316621       0.44007886 </v>
   <v>       0.41295989       0.11879184       0.37907671 </v>
   <v>       0.00387014       0.04610266       0.63075019 </v>
   <v>       0.14530764       0.03631010       0.37328450 </v>
   <v>       0.37380921       0.83351231       0.49986245 </v>
   <v>       0.35358893       0.54351038       0.11275815 </v>
   <v>       0.46558702       0.73509664       0.26201999 </v>
   <v>       0.55480851       0.65211362       0.71194510 </v>
   <v>       0.63735036       0.35655891       0.39870809 </v>
   <v>       0.93459210       0.65359708       0.95178575 </v>
   <v>       0.60185534       0.91056037       0.09829820 </v>
   <v>       0.97184383       0.66475766       0.39946102 </v>
   <v>       0.53392189       0.47011483       0.12172819 </v>
   <v>       0.67847253       0.40687220       0.08189589 </v>
   <v>       0.06793650       0.79717572       0.52857390 </v>
   <v>       0.11333585       0.72500586       0.66863748 </v>
   <v>       0.04911532       0.46629105       0.74899286 </v>
   <v>       0.16984585       0.57384283       0.80112584 </v>
   <v>       0.17233390       0.40691194       0.40749575 </v>
   <v>       0.02922760       0.35278709       0.50127867 </v>
   <v>       0.03964870       0.84964289       0.18904930 </v>
   <v>       0.04867946       0.72110261       0.24917014 </v>
   <v>       0.68359229       0.01474585       0.61904553 </v>
   <v>       0.71982394       0.93860233       0.74848037 </v>
   <v>       0.67690450       0.46130068       0.70385129 </v>
   <v>       0.65027153       0.32434869       0.80607342 </v>
   <v>       0.93805704       0.25654872       0.15035303 </v>
   <v>       0.04599456       0.25845195       0.27862739 </v>
   <v>       0.24892154       0.96659579       0.96885317 </v>
   <v>       0.23119848       0.81359871       0.05802484 </v>
   <v>       0.80436377       0.39975649       0.92926622 </v>
   <v>       0.86107347       0.49410896       0.02345821 </v>
   <v>       0.18111137       0.19562808       0.69138453 </v>
   <v>       0.29520932       0.27447045       0.63237629 </v>
   <v>       0.98620404       0.23785877       0.65628585 </v>
   <v>       0.86185086       0.31013969       0.68837278 </v>
   <v>       0.68515624       0.84520780       0.95886866 </v>
   <v>       0.79334481       0.74519353       0.91598804 </v>
   <v>       0.69119400       0.14180583       0.41404192 </v>
   <v>       0.56448155       0.05005176       0.41576379 </v>
   <v>       0.35774078       0.57015354       0.95608412 </v>
   <v>       0.30391751       0.70257160       0.88833304 </v>
   <v>       0.23555003       0.19278036       0.85661494 </v>
   <v>       0.16600984       0.16403631       0.01131341 </v>
   <v>       0.37455603       0.13440178       0.05815057 </v>
   <v>       0.47637164       0.23650470       0.11586058 </v>
   <v>       0.63744511       0.62958665       0.52436092 </v>
   <v>       0.60542848       0.67333850       0.36715300 </v>
   <v>       0.90384558       0.03254949       0.18473647 </v>
   <v>       0.75727720       0.98221531       0.30407646 </v>
   <v>       0.40941222       0.42243018       0.46817899 </v>
   <v>       0.39042374       0.26745968       0.42104759 </v>
   <v>       0.30998482       0.09806376       0.36380401 </v>
   <v>       0.42935435       0.10503316       0.27520403 </v>
   <v>       0.90348083       0.02188733       0.64285525 </v>
   <v>       0.06159788       0.96544570       0.63020306 </v>
   <v>       0.06778592       0.03557499       0.29138860 </v>
   <v>       0.07479383       0.04896025       0.46723044 </v>
   <v>       0.29247878       0.79828118       0.55735565 </v>
   <v>       0.44472791       0.81523908       0.57338944 </v>
   <v>       0.39424039       0.61848720       0.15811776 </v>
   <v>       0.29154856       0.47299922       0.16756972 </v>
   <v>       0.43123822       0.75506220       0.34911512 </v>
   <v>       0.48721943       0.80684673       0.19920937 </v>
   <v>       0.59820375       0.69143241       0.79808862 </v>
   <v>       0.46264251       0.64022659       0.75558488 </v>
   <v>       0.61774445       0.37702473       0.29917167 </v>
   <v>       0.66952185       0.44447727       0.39682422 </v>
   <v>       0.00709829       0.61884584       0.85887783 </v>
   <v>       0.99045115       0.70820487       0.02754435 </v>
   <v>       0.55744531       0.00997320       0.08945674 </v>
   <v>       0.68976658       0.91840355       0.12517601 </v>
   <v>       0.87000071       0.65332199       0.40840151 </v>
   <v>       0.00517479       0.57181530       0.40702198 </v>
  </varray>
 </structure>
</modeling>
