    #         X           Y           Z       CHARGE      MIN DIST   ATOMIC VOL
 --------------------------------------------------------------------------------
    1    0.000000    0.000000    0.000000   10.997442     1.266394   107.129612
    2    2.952628    1.709614    2.315764   10.954088     1.248828    17.232605
    3   -0.022392    3.398595    4.632562   10.969516     1.229117    17.254799
    4   -7.345844   12.725030    6.912115   11.029585     1.270829    23.314753
    5   13.227930    2.545716    0.000000   11.009654     1.283384   111.654603
    6    1.450075    4.251626    2.340906   10.971225     1.256450    17.350679
    7    1.480286    0.839717    4.610324   10.956067     1.255082    17.180226
    8   13.221228    2.542610    6.995313   10.923323     1.270529    20.426820
    9    1.469770    2.545716    0.000000   11.055316     1.265736   102.044436
   10   -1.478398    4.246840    2.315420   10.966007     1.256857    17.280545
   11    4.399521    0.841945    4.647371   10.978684     1.257998    17.334699
   12    1.453874    2.526458    6.899372   11.026577     1.257193    21.837495
   13    2.939540    0.000000    0.000000   11.013497     1.277207   111.115723
   14    0.014793    1.697802    2.319356   10.950619     1.249948    17.209523
   15    2.943369    3.395514    4.622771   10.960745     1.243769    17.238819
   16    2.944963    0.005473    6.995116   10.917802     1.270651    20.421494
   17    5.879080    0.000000    0.000000   11.054954     1.279084   107.337352
   18    8.813358    1.707005    2.320783   10.983078     1.260863    17.371986
   19    5.881336    3.411883    4.645305   10.953565     1.260499    17.227278
   20   -1.468190   12.727728    6.943357   11.049754     1.268403    22.661350
   21    4.409310    2.545716    0.000000   11.052648     1.303040   126.321537
   22    7.349041    4.242512    2.319651   10.939596     1.258193    17.130511
   23    7.378289    0.835173    4.665822   10.973284     1.256765    17.324934
   24    4.403865    2.546569    6.942029   11.024311     1.274904    23.247282
   25    7.348850    2.545716    0.000000   11.030536     1.264741   168.747428
   26    4.421502    4.241914    2.320783   10.976581     1.253084    17.333811
   27   10.285377    0.849480    4.623312   10.956473     1.253051    17.222839
   28    7.336952    2.541859    6.976961   10.948519     1.280657    21.660828
   29    8.818620    0.000000    0.000000   11.059900     1.291243   109.093371
   30    5.885554    1.688484    2.363046   10.962540     1.258511    17.332036
   31    8.802203    3.385293    4.645453   10.946613     1.244452    17.193543
   32    1.488341   12.726634    7.011943   10.953688     1.277788    21.446874
   33   11.758160    0.000000    0.000000   11.058099     1.254991   106.345707
   34   11.769132    3.386121    4.647371   10.979433     1.267240    17.331148
   35    4.434421   12.722102    6.900799   11.033836     1.247405    21.867679
   36   10.288390    2.545716    0.000000   11.040864     1.273933   123.085597
   37   13.230598    0.858886    4.611357   10.954952     1.260370    17.174012
   38   10.289757    2.537774    6.942718   11.012360     1.259005    23.189577
   39   10.293049    4.251575    2.363194   10.951960     1.255479    17.272555
   40   11.740868    1.701137    2.315961   10.952264     1.253829    17.221064
   41   -2.939540    5.091432    0.000000   11.055423     1.274097   116.531152
   42    0.020180    6.798208    2.337560   10.966557     1.260585    17.326709
   43   -2.935689    8.474511    4.668429   10.963729     1.262685    17.281433
   44   11.757212    5.088059    6.942423   11.050860     1.255434    22.661350
   45   -4.409310    7.637149    0.000000   11.055827     1.265070   108.344089
   46   -1.471541    9.311352    2.338052   10.971940     1.269341    17.353342
   47   -1.476208    5.941651    4.612046   10.958087     1.251819    17.216625
   48   10.280622    7.649024    7.012435   10.949792     1.278162    21.429118
   49   -1.469770    7.637149    0.000000   11.030826     1.292533   133.255062
   50   -4.391540    9.346292    2.341644   10.967697     1.261500    17.335587
   51    1.475950    5.947569    4.666904   10.968702     1.267202    17.304515
   52   -1.465464    7.616248    6.978880   10.960964     1.265664    21.739840
   53    0.000000    5.091432    0.000000   11.049895     1.283709   120.358351
   54   -2.956016    6.792633    2.324079   10.962949     1.262564    17.280545
   55   -0.000676    8.484668    4.673694   10.932357     1.252345    17.122521
   56   -0.003865    5.081275    6.941242   11.013133     1.274448    23.162056
   57    2.939540    5.091432    0.000000   11.060370     1.268695   106.201887
   58    5.868880    6.787109    2.363194   10.963278     1.258607    17.333811
   59    2.940929    8.478775    4.612292   10.958984     1.247941    17.227278
   60    2.930979    5.075102    7.010565   10.954525     1.269675    21.418465
   61    1.469770    7.637149    0.000000   11.015750     1.284358   134.978234
   62    4.409766    9.324195    2.315617   10.964567     1.256902    17.274330
   63    4.384361    5.920254    4.665526   10.967939     1.259340    17.298300
   64    1.484556    7.648044    6.976469   10.972272     1.263935    21.859689
   65    4.409310    7.637149    0.000000   11.039502     1.293572   112.966735
   66    1.450222    9.346062    2.338003   10.964255     1.250607    17.316056
   67    7.363834    5.927942    4.645453   10.951786     1.261189    17.213962
   68    4.411074    7.634170    6.943210   11.044163     1.291892    22.533511
   69    5.879080    5.091432    0.000000   11.009388     1.264833   146.419881
   70    2.944052    6.771987    2.324129   10.955666     1.266666    17.237044
   71    5.879323    8.497181    4.647667   10.971703     1.248788    17.297413
   72    5.883960    5.100368    6.977158   10.961190     1.276034    21.787780
   73    8.818620    5.091432    0.000000   11.015239     1.291160   147.633470
   74    8.818348    8.480175    4.623804   10.971668     1.265630    17.302739
   75    8.825227    5.079786    6.977601   10.972877     1.273034    21.851699
   76    7.348850    7.637149    0.000000   11.051645     1.276717   123.423839
   77   10.284333    5.969603    4.666018   10.968516     1.238503    17.307178
   78    7.353906    7.638676    6.942718   11.024306     1.278402    23.240180
   79    7.353656    9.315743    2.316010   10.945233     1.254206    17.178451
   80    8.812116    6.777778    2.321078   10.981866     1.259484    17.363996
   81   -5.879080   10.182865    0.000000   11.062430     1.277207   103.101776
   82   -2.931464   11.885096    2.315371   10.958172     1.248052    17.234381
   83   -5.884746   10.203345    6.901094   11.032195     1.255588    21.834832
   84   -4.393275   11.046983    4.633202   10.955924     1.245381    17.173124
   85   -1.464765   11.035056    4.612242   10.964857     1.260599    17.250360
   86   -2.939540   10.182865    0.000000   11.036748     1.280549   120.508385
   87   -5.885011   11.865672    2.319061   10.959294     1.268714    17.251248
   88   -2.943281   10.187740    6.942275   11.009138     1.266368    23.160280
   89    0.000000   10.182865    0.000000   11.012129     1.274587   163.515768
   90    2.941627   11.857488    2.340955   10.960296     1.263460    17.293861
   91   -0.016344   10.187523    6.976568   10.974607     1.295664    21.865016
   92    1.459893   11.032243    4.667445   10.966434     1.238604    17.295637
   93    4.416600   11.009230    4.633103   10.965252     1.253843    17.231717
   94    2.939540   10.182865    0.000000   11.052892     1.254492   123.440707
   95    0.011670   11.891524    2.324178   10.967381     1.255185    17.305403
   96    2.950504   10.182076    6.942029   11.009812     1.252113    23.169158
   97    5.879080   10.182865    0.000000   11.027518     1.265736   107.194420
   98    5.884805   10.174451    6.995854   10.914733     1.269947    20.369115
   99    7.338481   11.024848    4.611160   10.947040     1.248076    17.126072
  100    5.870644   11.891346    2.319504   10.959173     1.250437    17.253912
  101    1.992626    0.798133   17.267422    0.299980     0.047409     1.934462
  102    2.051277    0.816628    9.764558    0.322019     0.051554     1.634394
  103    3.362937    4.224998   17.445527    0.309405     0.034119     2.034781
  104    3.417414    4.289188    9.947829    0.291296     0.043131     1.652150
  105    0.303574    2.133068   13.453702    0.306841     0.029709     1.713406
  106   -2.004369    5.066306   13.638204    0.325973     0.066670     2.064965
  107    1.694667    1.330302   13.453850    0.305012     0.029379     1.978851
  108    5.389029    0.797802   13.642828    0.324954     0.070494     2.124446
  109   -0.305639    2.124655   17.266733    0.299129     0.046708     1.859889
  110   -0.322335    2.184275    9.763131    0.318331     0.048279     1.608649
  111    1.976216    5.026097   17.445675    0.309024     0.034287     1.815500
  112    2.008353    5.102201    9.941630    0.287048     0.041270     1.520759
  113   -4.855701   12.728110   15.087943    0.341844     0.054400     2.269153
  114   -3.899542   12.728517   13.779114    0.306383     0.021196     1.560709
  115    2.364713    4.101760   15.276331    0.319783     0.046411     2.271817
  116    1.936848    3.357621   13.871561    0.312371     0.101390     1.653037
  117   13.449086    2.159658   15.087106    0.340738     0.055121     2.254949
  118   12.971573    2.987271   13.777687    0.306510     0.020273     1.505667
  119   -2.739210   12.721351   19.046115    0.439639     0.057678   194.333110
  120    4.960194    0.000789   11.456215    0.350389     0.058575     2.348165
  121   -3.506768   12.726926   17.625355    0.337371     0.038317     1.681446
  122    4.045939    0.002317   10.121949    0.304710     0.039168     1.680559
  123    1.223503    2.120620   18.946730    0.443077     0.053798   166.974541
  124    1.274915    2.211349   11.306941    0.361761     0.009324     2.434280
  125    1.720072    2.980652   17.666388    0.355310     0.086271     1.895400
  126    1.743713    3.020480    9.986353    0.341488     0.122564     1.652150
  127   -2.302990    3.993783   19.045475    0.436307     0.056835   192.795483
  128   12.215442    4.296571   11.452623    0.347370     0.054727     2.321532
  129   -1.921247    3.327798   17.624715    0.332302     0.037614     1.678783
  130   12.672666    3.504407   10.119145    0.303693     0.038818     1.651262
  131    9.365014    0.805070   17.442182    0.310419     0.037366     1.868767
  132    9.273653    0.809041    9.948173    0.284571     0.040159     1.468380
  133   10.734480    4.222707   17.499107    0.212593     0.031189     1.351194
  134   10.620367    4.344417    9.882294    0.332771     0.071664     1.692987
  135    5.635745    1.320336   17.500829    0.320962     0.088930     2.039220
  136    5.803108    1.354856    9.882934    0.349564     0.074736     1.773775
  137    7.667511    2.117985   13.754661    0.294881     0.025045     1.620190
  138    5.352652    5.025957   13.754071    0.307642     0.077589     1.881196
  139    3.962375    4.204772   13.740639    0.317237     0.055156     1.700977
  140    9.075433    1.326064   13.742508    0.302442     0.054158     1.637945
  141   12.700180    0.803810   13.450406    0.317679     0.068777     1.924697
  142    7.036899    2.109902   17.502009    0.298853     0.018540     1.854562
  143    7.174646    2.179044   10.055578    0.322041     0.041740     1.716957
  144    9.352455    5.044795   17.502501    0.280377     0.019558     1.795082
  145    9.218508    5.116164   10.055676    0.324358     0.072893     1.766673
  146    2.621680   12.726506   15.275544    0.329296     0.039766     2.305552
  147    3.476293   12.727295   13.868511    0.300657     0.008585     1.521647
  148    9.800772    4.215668   15.339209    0.369187     0.091261     2.591416
  149    9.318187    3.405901   14.013504    0.341766     0.136026     2.072955
  150    6.095996    2.130421   15.340537    0.369322     0.093189     2.604733
  151    5.638934    2.952445   14.013307    0.327944     0.059634     1.721396
  152   12.251165    0.004557   18.957111    0.436156     0.064393   183.871567
  153    4.797513   12.727575   11.303792    0.359326     0.086107     2.494648
  154   11.261767    0.003984   17.673128    0.337463     0.078248     1.701865
  155    3.861189   12.726086    9.984188    0.314199     0.048960     1.519871
  156    8.666976    2.194216   19.088083    0.364785     0.045104   244.129310
  157    8.689457    2.190512   11.648835    0.343331     0.056335     2.388115
  158    9.086625    3.001718   17.753916    0.334181     0.108662     2.167059
  159    9.094422    3.027188   10.290215    0.331237     0.122002     1.596220
  160    4.915411    4.125842   19.091232    0.367190     0.045128   267.499993
  161    4.907114    4.104446   11.646768    0.340515     0.052847     2.355268
  162    5.401361    3.358869   17.755736    0.301417     0.044358     1.779102
  163    5.429757    3.335830   10.288099    0.325508     0.053627     1.477258
  164   -1.690610    7.149224   17.495367    0.299547     0.023530     1.844797
  165   -1.703684    7.302616   10.045787    0.298954     0.040226     1.631731
  166   -0.308791   10.620715   17.496647    0.305593     0.023243     1.896288
  167   -0.181722   10.545680   10.044311    0.315866     0.065849     1.706304
  168    1.659289    5.535138   13.731586    0.315298     0.061064     1.893625
  169   -3.388716    8.523516   13.735670    0.303721     0.059026     1.745366
  170   -5.653911   11.401499   13.450947    0.316521     0.069299     1.825266
  171   -1.999409    7.700091   13.745067    0.288482     0.033833     1.603322
  172    1.675832    7.149160   13.742656    0.321088     0.094808     1.932687
  173   -3.985142    8.513168   17.442625    0.310730     0.037859     1.872318
  174   -3.938499    8.435205    9.943893    0.278448     0.039285     1.444410
  175   -1.711848   11.405865   17.493744    0.223304     0.035298     1.335214
  176   -1.551313   11.376831    9.881015    0.339377     0.077451     1.733825
  177   -1.673017    5.541299   17.494383    0.321593     0.082910     2.003709
  178   -1.733594    5.701641    9.876242    0.351236     0.075388     1.750693
  179   -1.200699    6.346394   15.332567    0.360883     0.085864     2.595855
  180   -0.261972    6.360981   14.003812    0.330681     0.054055     1.721396
  181   -1.248849   10.593005   15.333059    0.345492     0.085606     2.495536
  182   -1.709188    9.772279   14.005927    0.334016     0.080322     2.036556
  183   -4.983424    8.636686   15.276233    0.324566     0.039591     2.290460
  184   -5.411892    9.375682   13.868904    0.299157     0.008558     1.516320
  185    1.112653    6.325379   19.087443    0.376622     0.078675   230.636902
  186    1.099278    6.303257   11.633878    0.326003     0.044929     2.207897
  187    0.207642    6.358626   17.750225    0.303029     0.038659     1.802184
  188    0.172536    6.369815   10.275651    0.325040     0.052823     1.493238
  189   -2.428604    8.601364   19.084590    0.359521     0.040872   213.458452
  190   -2.446469    8.621946   11.639240    0.336495     0.049356     2.277143
  191   -1.943719    9.369139   17.748995    0.334588     0.106077     2.208785
  192   -1.927317    9.392382   10.280473    0.335835     0.126746     1.614863
  193   -6.121945   10.612607   18.957554    0.435498     0.064864   172.968799
  194   -6.071274   10.520236   11.304186    0.316546     0.012122     2.258500
  195   -5.627448    9.755630   17.673522    0.338819     0.077566     1.703641
  196    9.091233    9.707401    9.984483    0.313965     0.049182     1.514545
  197    5.676347    7.188555   17.499451    0.252213     0.034823     1.534076
  198    5.619452    7.028531    9.889330    0.334869     0.080846     1.653925
  199    7.045423   10.611576   17.274261    0.304663     0.044587     1.756019
  200    7.030395   10.544458    9.764213    0.319361     0.051694     1.702753
  201    2.000908    7.692913   17.499254    0.296555     0.083036     1.885635
  202    1.878263    7.604182   10.043573    0.331002     0.086838     1.684110
  203    9.025093    5.581050   13.752939    0.292111     0.027388     1.577577
  204    3.961816    8.461846   13.646469    0.320145     0.043588     1.799520
  205    1.727582   11.398368   13.732029    0.324445     0.069705     1.898063
  206    0.320520   10.606434   13.741967    0.287636     0.037032     1.574913
  207    5.346987    7.661855   13.648880    0.313377     0.042038     2.039220
  208    9.007860    7.196269   13.741672    0.317537     0.077776     1.867879
  209    3.384888    8.512124   17.493301    0.252266     0.038219     1.489687
  210    3.281445    8.378932    9.883967    0.336669     0.081629     1.754244
  211    5.667110   11.407863   17.273769    0.304552     0.045133     2.040107
  212    5.619438   11.357242    9.762048    0.315063     0.047878     1.617526
  213    5.659732    5.580134   17.505749    0.294852     0.089673     2.122671
  214    5.649186    5.427327   10.055824    0.315439     0.066561     1.595332
  215    6.147276    6.380061   15.342358    0.288417     0.029245     2.115568
  216    7.087018    6.367714   14.014537    0.327265     0.060934     1.742703
  217    6.105954   10.575058   15.090501    0.336692     0.050938     2.288685
  218    5.626125    9.743767   13.784575    0.283372     0.078523     1.577577
  219    2.447902    8.515523   15.334683    0.356659     0.087789     2.586977
  220    1.969551    9.322209   14.005091    0.328954     0.056067     1.744478
  221    8.469888    6.416605   19.090198    0.357847     0.052344   247.759423
  222    8.449524    6.425019   11.646965    0.344204     0.053636     2.331298
  223    7.559953    6.376255   17.756523    0.342386     0.046489     2.077394
  224    7.521181    6.357392   10.289083    0.319311     0.053928     1.449737
  225    5.039907    8.741391   19.042720    0.405320     0.053696   188.729473
  226    4.870649    8.435574   11.464677    0.344063     0.066972     2.315318
  227    5.428507    9.405556   17.623682    0.346969     0.097332     1.755132
  228    5.327835    9.225179   10.128345    0.330717     0.112044     1.922033
  229    1.317605   10.539774   19.085918    0.352668     0.046910   215.732932
  230    1.337829   10.527555   11.633730    0.329901     0.046767     2.181264
  231    1.739502    9.735150   17.750619    0.296178     0.040516     1.852787
  232    1.744867    9.691287   10.275848    0.318311     0.053779     1.444410
  233   13.013777    1.328036   17.271899    0.338152     0.110453     1.929136
  234   12.965613    1.368870    9.763524    0.335515     0.111098     1.824378
  235   11.308469    4.266824   13.639975    0.323643     0.049393     1.798633
  236    9.325397    7.713902   17.444101    0.321115     0.079431     2.216775
  237    9.351294    7.620983    9.947386    0.322693     0.070818     1.672569
  238    7.653188   10.598593   13.451242    0.305914     0.030934     1.777326
  239   -1.959564   11.927151   13.639778    0.314147     0.049186     1.781765
  240   -5.357745   11.934763   17.272244    0.338590     0.110364     1.954881
  241   -5.295839   11.916688    9.762098    0.332950     0.107356     1.842134
  242    5.352564   11.926604   13.451439    0.305946     0.030752     1.883859
  243    2.016245   11.932688   17.443510    0.321227     0.080639     2.222101
  244    1.923694   11.911075    9.941236    0.317569     0.070203     1.627292
  245    2.474887    0.000611   14.098227    7.364693     0.681918    25.417005
  246    2.476702    0.000547   16.897337    7.358875     0.704260    26.668768
  247    2.585987    0.003233    9.508962    7.307363     0.693323    19.976718
  248    2.403934    4.168216   14.290502    7.383815     0.753655    25.741043
  249    2.429890    4.210627   17.077558    7.372608     0.675758    26.396221
  250    2.505620    4.333573    9.519933    7.385917     0.686641    19.782295
  251   13.459264    2.143989   14.097440    7.364206     0.680796    25.419668
  252   -1.238450    2.145491   16.896795    7.360518     0.705028    26.683860
  253   13.403340    2.238486    9.508519    7.308886     0.697705    20.105446
  254   -2.577881   12.725208   18.080459    7.339656     0.692319    42.829828
  255    5.002201    0.001196   10.466106    7.354096     0.709501    23.581086
  256   -2.425010   12.727423   13.249274    7.349541     0.684304    25.471159
  257    1.225987    2.124260   17.967347    7.333839     0.728507    38.521455
  258    1.257293    2.181539   10.315454    7.309150     0.706246    23.143412
  259    1.249312    2.165170   13.115105    7.372818     0.692149    25.697542
  260   -2.385554    4.132385   18.079819    7.347552     0.692444    42.956780
  261   12.194711    4.332885   10.462465    7.357310     0.709595    23.606831
  262   12.232999    4.263642   13.246667    7.339735     0.684013    25.506670
  263    2.541820   12.725348   14.289912    7.382479     0.712222    25.501343
  264    9.845886    0.004353   17.076278    7.365749     0.678543    26.717596
  265    2.341395   12.725743    9.519392    7.365303     0.690773    19.769867
  266    9.801220    4.246840   14.350183    7.302856     0.705157    25.156887
  267    9.798280    4.223420   17.138271    7.499343     0.710494    26.788618
  268    9.643514    4.289837    9.665025    7.324674     0.665298    20.135630
  269    6.123980    2.113161   14.351560    7.313508     0.679984    25.182632
  270    6.102147    2.131503   17.138763    7.377712     0.692690    26.401548
  271    6.247213    2.226127    9.663648    7.311252     0.656023    20.031760
  272   12.249423    0.004060   17.977728    7.355829     0.691684    40.078613
  273    4.831178   12.727359   10.312256    7.335040     0.702628    23.099911
  274   12.201141    0.000318   13.110578    7.366991     0.693018    25.670909
  275    8.608171    2.157813   18.111848    7.413511     0.748845    46.255753
  276    8.681513    2.153307   10.659365    7.340185     0.721334    24.022310
  277    8.614645    2.158691   13.418721    7.389298     0.677942    25.334442
  278    4.912993    4.196448   18.115145    7.440659     0.733708    46.475033
  279    4.879475    4.130246   10.657299    7.345597     0.670629    23.956615
  280    4.913860    4.186061   13.416900    7.364920     0.689628    25.152448
  281   -1.230616    6.361885   14.343590    7.316057     0.675519    25.163101
  282   -1.204388    6.350849   17.131481    7.382975     0.695620    26.351832
  283   -1.201434    6.521488    9.653217    7.332895     0.701738    20.107221
  284   -1.221967   10.610087   14.344033    7.330783     0.711302    25.202163
  285   -1.242933   10.595971   17.131973    7.467582     0.692025    26.695401
  286   -1.111308   10.504414    9.656464    7.322734     0.671755    20.105446
  287   -4.945203    8.566208   14.290601    7.388796     0.711773    25.476486
  288   -4.919100    8.529982   17.076770    7.365448     0.678364    26.822353
  289    9.845997    8.388377    9.519638    7.365319     0.709921    19.745009
  290    1.176668    6.355177   18.111356    7.429326     0.731142    45.737292
  291    1.135243    6.292183   10.644359    7.361274     0.702298    24.027637
  292    1.168864    6.349194   13.404206    7.352573     0.683427    25.162213
  293   -2.434483    8.532808   18.108306    7.419601     0.748425    46.177629
  294   -2.474512    8.596209   10.649722    7.344416     0.716720    24.040065
  295   -2.438319    8.540191   13.408733    7.392131     0.681411    25.409015
  296   -6.121790   10.610711   17.978220    7.355070     0.692353    39.744809
  297   -6.088023   10.549422   10.312601    7.378168     0.702814    23.335172
  298   -6.099443   10.567268   13.110726    7.367492     0.693707    25.717961
  299    6.117815    6.364774   14.353381    7.394427     0.699937    25.752584
  300    6.145909    6.377846   17.140485    7.451534     0.720720    26.952856
  301    6.151774    6.209244    9.666157    7.335206     0.664950    20.233285
  302    6.113743   10.588397   14.100786    7.398949     0.758037    25.536854
  303    6.114280   10.590650   16.900239    7.382166     0.699476    27.140177
  304    6.058245   10.487511    9.509995    7.324087     0.700210    19.959850
  305    2.450805    8.481805   14.345705    7.319375     0.674705    25.277624
  306    2.448299    8.512824   17.133498    7.454693     0.725256    26.937764
  307    2.306760    8.429681    9.654841    7.316130     0.661319    20.118762
  308    8.530185    6.384745   18.113915    7.407413     0.661979    46.370276
  309    8.485144    6.433330   10.657496    7.350634     0.709779    24.121741
  310    8.516751    6.381410   13.417294    7.379695     0.706680    25.326452
  311    4.962678    8.601033   18.076867    7.371352     0.721349    45.415030
  312    4.848955    8.398381   10.474569    7.338906     0.727275    23.744436
  313    4.888242    8.465563   13.257343    7.350776     0.682471    25.373504
  314    1.261364   10.578889   18.109634    7.459909     0.735505    46.692538
  315    1.326526   10.562355   10.644212    7.363879     0.725394    24.200753
  316    1.267125   10.567128   13.404452    7.375536     0.710586    25.383269
 --------------------------------------------------------------------------------
    VACUUM CHARGE:               0.0000
    VACUUM VOLUME:               0.0000
    NUMBER OF ELECTRONS:      1676.0001
