  72  72   0   0
  0.1278396E+03  0.1469770E-08  0.1469770E-08  0.4920040E-08  0.5000000E-15
  1.000000000000000E-004
  CAR 
 ice                                     
      1.81420389    -26.75563696  301     -5.32823307      1.00000000
    -26.756  0.0000E+00  0.0000E+00
    -26.660  0.0000E+00  0.0000E+00
    -26.565  0.0000E+00  0.0000E+00
    -26.470  0.0000E+00  0.0000E+00
    -26.375  0.0000E+00  0.0000E+00
    -26.279  0.0000E+00  0.0000E+00
    -26.184  0.0000E+00  0.0000E+00
    -26.089  0.0000E+00  0.0000E+00
    -25.994  0.0000E+00  0.0000E+00
    -25.899  0.3069E-05  0.2923E-06
    -25.803  0.1753E-04  0.1962E-05
    -25.708  0.1288E-03  0.1423E-04
    -25.613  0.8393E-03  0.9416E-04
    -25.518  0.4484E-02  0.5212E-03
    -25.422  0.1277E-01  0.1737E-02
    -25.327  0.2407E-01  0.4029E-02
    -25.232  0.4868E-01  0.8665E-02
    -25.137  0.4737E-01  0.1318E-01
    -25.041  0.3787E-01  0.1679E-01
    -24.946  0.4151E-01  0.2074E-01
    -24.851  0.2559E-01  0.2318E-01
    -24.756  0.7355E-02  0.2389E-01
    -24.661  0.2747E-02  0.2415E-01
    -24.565  0.8687E-02  0.2498E-01
    -24.470  0.2743E-01  0.2760E-01
    -24.375  0.4032E-01  0.3143E-01
    -24.280  0.3328E-01  0.3460E-01
    -24.184  0.4140E-01  0.3855E-01
    -24.089  0.4882E-01  0.4320E-01
    -23.994  0.2632E-01  0.4571E-01
    -23.899  0.1337E-01  0.4699E-01
    -23.803  0.8131E-02  0.4776E-01
    -23.708  0.1979E-02  0.4796E-01
    -23.613  0.3312E-03  0.4799E-01
    -23.518  0.5022E-04  0.4800E-01
    -23.422  0.0000E+00  0.4800E-01
    -23.327  0.0000E+00  0.4800E-01
    -23.232  0.0000E+00  0.4800E-01
    -23.137  0.0000E+00  0.4800E-01
    -23.042  0.0000E+00  0.4800E-01
    -22.946  0.0000E+00  0.4800E-01
    -22.851  0.0000E+00  0.4800E-01
    -22.756  0.0000E+00  0.4800E-01
    -22.661  0.0000E+00  0.4800E-01
    -22.565  0.0000E+00  0.4800E-01
    -22.470  0.0000E+00  0.4800E-01
    -22.375  0.0000E+00  0.4800E-01
    -22.280  0.0000E+00  0.4800E-01
    -22.184  0.0000E+00  0.4800E-01
    -22.089  0.0000E+00  0.4800E-01
    -21.994  0.0000E+00  0.4800E-01
    -21.899  0.0000E+00  0.4800E-01
    -21.804  0.0000E+00  0.4800E-01
    -21.708  0.0000E+00  0.4800E-01
    -21.613  0.0000E+00  0.4800E-01
    -21.518  0.0000E+00  0.4800E-01
    -21.423  0.0000E+00  0.4800E-01
    -21.327  0.0000E+00  0.4800E-01
    -21.232  0.0000E+00  0.4800E-01
    -21.137  0.0000E+00  0.4800E-01
    -21.042  0.0000E+00  0.4800E-01
    -20.946  0.0000E+00  0.4800E-01
    -20.851  0.0000E+00  0.4800E-01
    -20.756  0.0000E+00  0.4800E-01
    -20.661  0.0000E+00  0.4800E-01
    -20.566  0.0000E+00  0.4800E-01
    -20.470  0.0000E+00  0.4800E-01
    -20.375  0.0000E+00  0.4800E-01
    -20.280  0.0000E+00  0.4800E-01
    -20.185  0.0000E+00  0.4800E-01
    -20.089  0.0000E+00  0.4800E-01
    -19.994  0.0000E+00  0.4800E-01
    -19.899  0.0000E+00  0.4800E-01
    -19.804  0.0000E+00  0.4800E-01
    -19.708  0.0000E+00  0.4800E-01
    -19.613  0.0000E+00  0.4800E-01
    -19.518  0.0000E+00  0.4800E-01
    -19.423  0.0000E+00  0.4800E-01
    -19.327  0.0000E+00  0.4800E-01
    -19.232  0.0000E+00  0.4800E-01
    -19.137  0.0000E+00  0.4800E-01
    -19.042  0.0000E+00  0.4800E-01
    -18.947  0.0000E+00  0.4800E-01
    -18.851  0.0000E+00  0.4800E-01
    -18.756  0.0000E+00  0.4800E-01
    -18.661  0.0000E+00  0.4800E-01
    -18.566  0.0000E+00  0.4800E-01
    -18.470  0.0000E+00  0.4800E-01
    -18.375  0.0000E+00  0.4800E-01
    -18.280  0.0000E+00  0.4800E-01
    -18.185  0.0000E+00  0.4800E-01
    -18.089  0.0000E+00  0.4800E-01
    -17.994  0.0000E+00  0.4800E-01
    -17.899  0.0000E+00  0.4800E-01
    -17.804  0.0000E+00  0.4800E-01
    -17.709  0.0000E+00  0.4800E-01
    -17.613  0.0000E+00  0.4800E-01
    -17.518  0.0000E+00  0.4800E-01
    -17.423  0.0000E+00  0.4800E-01
    -17.328  0.0000E+00  0.4800E-01
    -17.232  0.0000E+00  0.4800E-01
    -17.137  0.0000E+00  0.4800E-01
    -17.042  0.0000E+00  0.4800E-01
    -16.947  0.0000E+00  0.4800E-01
    -16.851  0.0000E+00  0.4800E-01
    -16.756  0.0000E+00  0.4800E-01
    -16.661  0.0000E+00  0.4800E-01
    -16.566  0.0000E+00  0.4800E-01
    -16.470  0.0000E+00  0.4800E-01
    -16.375  0.0000E+00  0.4800E-01
    -16.280  0.0000E+00  0.4800E-01
    -16.185  0.0000E+00  0.4800E-01
    -16.090  0.0000E+00  0.4800E-01
    -15.994  0.0000E+00  0.4800E-01
    -15.899  0.0000E+00  0.4800E-01
    -15.804  0.0000E+00  0.4800E-01
    -15.709  0.0000E+00  0.4800E-01
    -15.613  0.0000E+00  0.4800E-01
    -15.518  0.0000E+00  0.4800E-01
    -15.423  0.0000E+00  0.4800E-01
    -15.328  0.0000E+00  0.4800E-01
    -15.232  0.0000E+00  0.4800E-01
    -15.137  0.0000E+00  0.4800E-01
    -15.042  0.0000E+00  0.4800E-01
    -14.947  0.0000E+00  0.4800E-01
    -14.852  0.0000E+00  0.4800E-01
    -14.756  0.0000E+00  0.4800E-01
    -14.661  0.0000E+00  0.4800E-01
    -14.566  0.0000E+00  0.4800E-01
    -14.471  0.0000E+00  0.4800E-01
    -14.375  0.0000E+00  0.4800E-01
    -14.280  0.0000E+00  0.4800E-01
    -14.185  0.0000E+00  0.4800E-01
    -14.090  0.0000E+00  0.4800E-01
    -13.994  0.0000E+00  0.4800E-01
    -13.899  0.0000E+00  0.4800E-01
    -13.804  0.0000E+00  0.4800E-01
    -13.709  0.0000E+00  0.4800E-01
    -13.614  0.0000E+00  0.4800E-01
    -13.518  0.1614E-04  0.4800E-01
    -13.423  0.1247E-03  0.4801E-01
    -13.328  0.8006E-03  0.4809E-01
    -13.233  0.5183E-02  0.4858E-01
    -13.137  0.2802E-01  0.5125E-01
    -13.042  0.8109E-01  0.5897E-01
    -12.947  0.8946E-01  0.6749E-01
    -12.852  0.3883E-01  0.7119E-01
    -12.756  0.1326E-01  0.7245E-01
    -12.661  0.2357E-01  0.7471E-01
    -12.566  0.6242E-01  0.8067E-01
    -12.471  0.9031E-01  0.8927E-01
    -12.375  0.5354E-01  0.9437E-01
    -12.280  0.1423E-01  0.9573E-01
    -12.185  0.2419E-02  0.9596E-01
    -12.090  0.1875E-03  0.9600E-01
    -11.995  0.0000E+00  0.9600E-01
    -11.899  0.0000E+00  0.9600E-01
    -11.804  0.0000E+00  0.9600E-01
    -11.709  0.0000E+00  0.9600E-01
    -11.614  0.0000E+00  0.9600E-01
    -11.518  0.0000E+00  0.9600E-01
    -11.423  0.1908E-05  0.9600E-01
    -11.328  0.1090E-04  0.9600E-01
    -11.233  0.7293E-04  0.9601E-01
    -11.137  0.4770E-03  0.9605E-01
    -11.042  0.2715E-02  0.9631E-01
    -10.947  0.8358E-02  0.9711E-01
    -10.852  0.7118E-02  0.9779E-01
    -10.757  0.1897E-02  0.9797E-01
    -10.661  0.4123E-03  0.9801E-01
    -10.566  0.7133E-03  0.9807E-01
    -10.471  0.4267E-02  0.9848E-01
    -10.376  0.2182E-01  0.1006E+00
    -10.280  0.5191E-01  0.1055E+00
    -10.185  0.3645E-01  0.1090E+00
    -10.090  0.9883E-02  0.1099E+00
     -9.995  0.6135E-02  0.1105E+00
     -9.899  0.1935E-01  0.1123E+00
     -9.804  0.2657E-01  0.1149E+00
     -9.709  0.1022E-01  0.1159E+00
     -9.614  0.4778E-02  0.1163E+00
     -9.518  0.1286E-01  0.1175E+00
     -9.423  0.1779E-01  0.1192E+00
     -9.328  0.6803E-02  0.1199E+00
     -9.233  0.2295E-02  0.1201E+00
     -9.138  0.6218E-02  0.1207E+00
     -9.042  0.1738E-01  0.1224E+00
     -8.947  0.1407E-01  0.1237E+00
     -8.852  0.7423E-02  0.1244E+00
     -8.757  0.1830E-01  0.1261E+00
     -8.661  0.2758E-01  0.1288E+00
     -8.566  0.1296E-01  0.1300E+00
     -8.471  0.1437E-01  0.1314E+00
     -8.376  0.4469E-01  0.1356E+00
     -8.280  0.4857E-01  0.1403E+00
     -8.185  0.1518E-01  0.1417E+00
     -8.090  0.2663E-02  0.1420E+00
     -7.995  0.5433E-03  0.1420E+00
     -7.900  0.8936E-03  0.1421E+00
     -7.804  0.4464E-02  0.1425E+00
     -7.709  0.9328E-02  0.1434E+00
     -7.614  0.5188E-02  0.1439E+00
     -7.519  0.2534E-02  0.1441E+00
     -7.423  0.9261E-02  0.1450E+00
     -7.328  0.3916E-01  0.1488E+00
     -7.233  0.8839E-01  0.1572E+00
     -7.138  0.8095E-01  0.1649E+00
     -7.042  0.2734E-01  0.1675E+00
     -6.947  0.7651E-02  0.1682E+00
     -6.852  0.1590E-01  0.1698E+00
     -6.757  0.5247E-01  0.1748E+00
     -6.662  0.8803E-01  0.1831E+00
     -6.566  0.6783E-01  0.1896E+00
     -6.471  0.2084E-01  0.1916E+00
     -6.376  0.3661E-02  0.1919E+00
     -6.281  0.4471E-03  0.1920E+00
     -6.185  0.0000E+00  0.1920E+00
     -6.090  0.0000E+00  0.1920E+00
     -5.995  0.0000E+00  0.1920E+00
     -5.900  0.0000E+00  0.1920E+00
     -5.804  0.0000E+00  0.1920E+00
     -5.709  0.0000E+00  0.1920E+00
     -5.614  0.0000E+00  0.1920E+00
     -5.519  0.0000E+00  0.1920E+00
     -5.423  0.0000E+00  0.1920E+00
     -5.328  0.0000E+00  0.1920E+00
     -5.233  0.0000E+00  0.1920E+00
     -5.138  0.0000E+00  0.1920E+00
     -5.043  0.0000E+00  0.1920E+00
     -4.947  0.0000E+00  0.1920E+00
     -4.852  0.0000E+00  0.1920E+00
     -4.757  0.0000E+00  0.1920E+00
     -4.662  0.0000E+00  0.1920E+00
     -4.566  0.0000E+00  0.1920E+00
     -4.471  0.0000E+00  0.1920E+00
     -4.376  0.0000E+00  0.1920E+00
     -4.281  0.0000E+00  0.1920E+00
     -4.185  0.0000E+00  0.1920E+00
     -4.090  0.0000E+00  0.1920E+00
     -3.995  0.0000E+00  0.1920E+00
     -3.900  0.0000E+00  0.1920E+00
     -3.805  0.0000E+00  0.1920E+00
     -3.709  0.0000E+00  0.1920E+00
     -3.614  0.0000E+00  0.1920E+00
     -3.519  0.0000E+00  0.1920E+00
     -3.424  0.0000E+00  0.1920E+00
     -3.328  0.0000E+00  0.1920E+00
     -3.233  0.0000E+00  0.1920E+00
     -3.138  0.0000E+00  0.1920E+00
     -3.043  0.0000E+00  0.1920E+00
     -2.947  0.0000E+00  0.1920E+00
     -2.852  0.0000E+00  0.1920E+00
     -2.757  0.2716E-05  0.1920E+00
     -2.662  0.1551E-04  0.1920E+00
     -2.567  0.1036E-03  0.1920E+00
     -2.471  0.6703E-03  0.1921E+00
     -2.376  0.3585E-02  0.1924E+00
     -2.281  0.9039E-02  0.1933E+00
     -2.186  0.5955E-02  0.1938E+00
     -2.090  0.1371E-02  0.1940E+00
     -1.995  0.2220E-03  0.1940E+00
     -1.900  0.1125E-04  0.1940E+00
     -1.805  0.7502E-04  0.1940E+00
     -1.709  0.4978E-03  0.1941E+00
     -1.614  0.3105E-02  0.1944E+00
     -1.519  0.1459E-01  0.1957E+00
     -1.424  0.3788E-01  0.1993E+00
     -1.328  0.5289E-01  0.2044E+00
     -1.233  0.4170E-01  0.2084E+00
     -1.138  0.1438E-01  0.2097E+00
     -1.043  0.3871E-02  0.2101E+00
     -0.948  0.6037E-02  0.2107E+00
     -0.852  0.9616E-02  0.2116E+00
     -0.757  0.6842E-02  0.2122E+00
     -0.662  0.1755E-01  0.2139E+00
     -0.567  0.5276E-01  0.2189E+00
     -0.471  0.5607E-01  0.2243E+00
     -0.376  0.5437E-01  0.2295E+00
     -0.281  0.6063E-01  0.2352E+00
     -0.186  0.2646E-01  0.2378E+00
     -0.090  0.1934E-01  0.2396E+00
      0.005  0.6151E-01  0.2455E+00
      0.100  0.8665E-01  0.2537E+00
      0.195  0.3637E-01  0.2572E+00
      0.290  0.8467E-02  0.2580E+00
      0.386  0.8159E-02  0.2588E+00
      0.481  0.3013E-01  0.2617E+00
      0.576  0.4496E-01  0.2659E+00
      0.671  0.1772E-01  0.2676E+00
      0.767  0.3313E-02  0.2679E+00
      0.862  0.5121E-03  0.2680E+00
      0.957  0.0000E+00  0.2680E+00
      1.052  0.0000E+00  0.2680E+00
      1.148  0.0000E+00  0.2680E+00
      1.243  0.0000E+00  0.2680E+00
      1.338  0.0000E+00  0.2680E+00
      1.433  0.0000E+00  0.2680E+00
      1.529  0.0000E+00  0.2680E+00
      1.624  0.0000E+00  0.2680E+00
      1.719  0.0000E+00  0.2680E+00
      1.814  0.0000E+00  0.2680E+00
