Loading vasp/5.4.4-mpi-cuda
  Loading requirement: gcc/8.5.0 intel-compilers/19.0.4 cuda/10.1.1
    intel-mpi/2019.4
 running on   40 total cores
 distrk:  each k-point on   40 cores,    1 groups
 distr:  one band on   20 cores,    2 groups
 using from now: INCAR     
 vasp.5.4.4.18Apr17-6-g9f103f2a35 (build Dec 06 2019 17:20:26) complex          
  
 POSCAR found type information on POSCAR  H  O 
 POSCAR found :  2 types and      72 ions
 scaLAPACK will be used

 ----------------------------------------------------------------------------- 
|                                                                             |
|           W    W    AA    RRRRR   N    N  II  N    N   GGGG   !!!           |
|           W    W   A  A   R    R  NN   N  II  NN   N  G    G  !!!           |
|           W    W  A    A  R    R  N N  N  II  N N  N  G       !!!           |
|           W WW W  AAAAAA  RRRRR   N  N N  II  N  N N  G  GGG   !            |
|           WW  WW  A    A  R   R   N   NN  II  N   NN  G    G                |
|           W    W  A    A  R    R  N    N  II  N    N   GGGG   !!!           |
|                                                                             |
|      For optimal performance we recommend to set                            |
|        NCORE= 4 - approx SQRT( number of cores)                             |
|      NCORE specifies how many cores store one orbital (NPAR=cpu/NCORE).     |
|      This setting can  greatly improve the performance of VASP for DFT.     |
|      The default,   NCORE=1            might be grossly inefficient         |
|      on modern multi-core architectures or massively parallel machines.     |
|      Do your own testing !!!!                                               |
|      Unfortunately you need to use the default for GW and RPA calculations. |
|      (for HF NCORE is supported but not extensively tested yet)             |
|                                                                             |
 ----------------------------------------------------------------------------- 

 LDA part: xc-table for Pade appr. of Perdew
 POSCAR, INCAR and KPOINTS ok, starting setup
 FFT: planning ...
 WAVECAR not read
 WARNING: chargedensity file is incomplete
 WARNING: random wavefunctions but no delay for mixing, default for NELMDL
 entering main loop
       N       E                     dE             d eps       ncg     rms          rms(c)
RMM:   1     0.327821130451E+04    0.32782E+04   -0.28245E+04   134   0.603E+02
RMM:   2     0.205325465540E+04   -0.12250E+04   -0.13858E+04   134   0.144E+02
RMM:   3     0.166355490972E+04   -0.38970E+03   -0.88659E+03   134   0.138E+02
RMM:   4     0.917586405161E+03   -0.74597E+03   -0.72848E+03   134   0.146E+02
RMM:   5     0.366714049742E+03   -0.55087E+03   -0.52086E+03   134   0.139E+02
RMM:   6     0.172481934808E+02   -0.34947E+03   -0.31809E+03   134   0.110E+02
RMM:   7    -0.205503180267E+03   -0.22275E+03   -0.19492E+03   134   0.773E+01
RMM:   8    -0.319050610584E+03   -0.11355E+03   -0.98504E+02   134   0.490E+01
RMM:   9    -0.385921374837E+03   -0.66871E+02   -0.57416E+02   271   0.289E+01
RMM:  10    -0.389337777237E+03   -0.34164E+01   -0.35902E+01   279   0.894E+00
RMM:  11    -0.389514882355E+03   -0.17711E+00   -0.19416E+00   274   0.199E+00
RMM:  12    -0.389532888779E+03   -0.18006E-01   -0.19966E-01   290   0.507E-01    0.359E+01
RMM:  13    -0.352861964549E+03    0.36671E+02   -0.14288E+02   268   0.266E+01    0.137E+01
RMM:  14    -0.350704275601E+03    0.21577E+01   -0.96607E+00   269   0.555E+00    0.889E+00
RMM:  15    -0.349190383439E+03    0.15139E+01   -0.25896E+00   268   0.427E+00    0.155E+00
RMM:  16    -0.348989389030E+03    0.20099E+00   -0.73914E-01   269   0.150E+00    0.759E-01
RMM:  17    -0.348896386945E+03    0.93002E-01   -0.29645E-01   283   0.832E-01    0.944E-01
RMM:  18    -0.348874440202E+03    0.21947E-01   -0.95032E-02   268   0.718E-01    0.219E-01
RMM:  19    -0.348892846896E+03   -0.18407E-01   -0.30661E-02   268   0.347E-01    0.135E-01
RMM:  20    -0.348909100700E+03   -0.16254E-01   -0.70428E-03   273   0.137E-01    0.940E-02
RMM:  21    -0.348919415586E+03   -0.10315E-01   -0.46357E-03   268   0.972E-02    0.605E-02
RMM:  22    -0.348926030651E+03   -0.66151E-02   -0.22148E-03   282   0.829E-02    0.496E-02
RMM:  23    -0.348930930921E+03   -0.49003E-02   -0.47213E-04   268   0.397E-02    0.260E-02
RMM:  24    -0.348932898011E+03   -0.19671E-02   -0.29399E-04   270   0.292E-02    0.995E-03
RMM:  25    -0.348933689891E+03   -0.79188E-03   -0.54254E-05   254   0.106E-02    0.797E-03
RMM:  26    -0.348934219447E+03   -0.52956E-03   -0.24465E-05   257   0.780E-03    0.615E-03
RMM:  27    -0.348934289687E+03   -0.70239E-04   -0.87923E-06   247   0.526E-03    0.638E-03
RMM:  28    -0.348934358049E+03   -0.68362E-04   -0.26253E-06   192   0.313E-03    0.522E-03
RMM:  29    -0.348934363998E+03   -0.59495E-05   -0.21653E-06   190   0.305E-03    0.526E-03
RMM:  30    -0.348934390259E+03   -0.26261E-04   -0.36808E-07   172   0.196E-03    0.503E-03
RMM:  31    -0.348934387238E+03    0.30209E-05   -0.18348E-07   172   0.123E-03    0.498E-03
RMM:  32    -0.348934393809E+03   -0.65709E-05   -0.63977E-08   137   0.645E-04    0.499E-03
RMM:  33    -0.348934395495E+03   -0.16862E-05   -0.14437E-08    90   0.446E-04    0.498E-03
RMM:  34    -0.348934395999E+03   -0.50336E-06   -0.75207E-09    83   0.487E-04
   1 F= -.35024383E+03 E0= -.35024383E+03  d E =-.350244E+03
 curvature:   0.00 expect dE= 0.000E+00 dE for cont linesearch  0.000E+00
 trial: gam= 0.00000 g(F)=  0.107E+02 g(S)=  0.000E+00 ort = 0.000E+00 (trialstep = 0.100E+01)
 search vector abs. value=  0.107E+02
 bond charge predicted
       N       E                     dE             d eps       ncg     rms          rms(c)
RMM:   1    -0.356431147984E+03   -0.74968E+01   -0.22195E+03   268   0.124E+02    0.844E+00
RMM:   2    -0.341491534890E+03    0.14940E+02   -0.32728E+01   281   0.122E+01    0.133E+01
RMM:   3    -0.348506444551E+03   -0.70149E+01   -0.17744E+01   268   0.857E+00    0.214E+01
RMM:   4    -0.339946907639E+03    0.85595E+01   -0.99205E+01   268   0.208E+01    0.112E+01
RMM:   5    -0.339988290444E+03   -0.41383E-01   -0.70855E+00   269   0.537E+00    0.126E+01
RMM:   6    -0.336686719774E+03    0.33016E+01   -0.14236E+01   268   0.744E+00    0.405E+00
RMM:   7    -0.336846546913E+03   -0.15983E+00   -0.12342E+00   283   0.203E+00    0.308E+00
RMM:   8    -0.336694590838E+03    0.15196E+00   -0.83379E-01   269   0.182E+00    0.884E-01
RMM:   9    -0.336733780900E+03   -0.39190E-01   -0.40253E-01   284   0.119E+00    0.592E-01
RMM:  10    -0.336750067410E+03   -0.16287E-01   -0.74752E-02   299   0.458E-01    0.954E-01
RMM:  11    -0.336749853802E+03    0.21361E-03   -0.17379E-01   268   0.750E-01    0.273E-01
RMM:  12    -0.336757556805E+03   -0.77030E-02   -0.14136E-02   290   0.213E-01    0.259E-01
RMM:  13    -0.336761899490E+03   -0.43427E-02   -0.89887E-03   268   0.197E-01    0.266E-01
RMM:  14    -0.336763253261E+03   -0.13538E-02   -0.42142E-03   268   0.120E-01    0.140E-01
RMM:  15    -0.336764594223E+03   -0.13410E-02   -0.74519E-03   279   0.157E-01    0.542E-02
RMM:  16    -0.336765179482E+03   -0.58526E-03   -0.23706E-04   269   0.344E-02    0.392E-02
RMM:  17    -0.336765403951E+03   -0.22447E-03   -0.18837E-04   275   0.271E-02    0.157E-02
RMM:  18    -0.336765471287E+03   -0.67335E-04   -0.15824E-05   256   0.855E-03    0.140E-02
RMM:  19    -0.336765525561E+03   -0.54274E-04   -0.62721E-05   268   0.134E-02    0.663E-03
RMM:  20    -0.336765554846E+03   -0.29286E-04   -0.19712E-06   180   0.350E-03    0.575E-03
RMM:  21    -0.336765559279E+03   -0.44324E-05   -0.39377E-06   214   0.410E-03    0.525E-03
RMM:  22    -0.336765551659E+03    0.76200E-05   -0.29646E-07   172   0.158E-03    0.505E-03
RMM:  23    -0.336765552173E+03   -0.51432E-06   -0.12033E-07   160   0.858E-04
   2 F= -.33809464E+03 E0= -.33809464E+03  d E =0.121492E+02
 trial-energy change:   12.149186  1 .order   14.356395  -10.719159   39.431949
 step:   0.2652(harm=  0.2137)  dis= 0.02667  next Energy=  -351.706330 (dE=-0.146E+01)
 bond charge predicted
       N       E                     dE             d eps       ncg     rms          rms(c)
RMM:   1    -0.357122024782E+03   -0.20356E+02   -0.11612E+03   268   0.897E+01    0.850E+00
RMM:   2    -0.350410958960E+03    0.67111E+01   -0.23306E+01   268   0.107E+01    0.306E+00
RMM:   3    -0.350517906901E+03   -0.10695E+00   -0.22933E+00   287   0.264E+00    0.319E+00
RMM:   4    -0.350302529528E+03    0.21538E+00   -0.43759E-01   271   0.132E+00    0.166E+00
RMM:   5    -0.350277525386E+03    0.25004E-01   -0.10780E+00   268   0.189E+00    0.707E-01
RMM:   6    -0.350265556369E+03    0.11969E-01   -0.49774E-02   268   0.529E-01    0.207E-01
RMM:   7    -0.350267708145E+03   -0.21518E-02   -0.79704E-03   268   0.164E-01    0.663E-02
RMM:   8    -0.350267907557E+03   -0.19941E-03   -0.73066E-04   268   0.598E-02    0.845E-02
RMM:   9    -0.350268852749E+03   -0.94519E-03   -0.31548E-04   268   0.370E-02    0.494E-02
RMM:  10    -0.350268947849E+03   -0.95101E-04   -0.47763E-04   268   0.368E-02    0.122E-02
RMM:  11    -0.350268949855E+03   -0.20058E-05   -0.92462E-05   297   0.162E-02    0.126E-02
RMM:  12    -0.350268948086E+03    0.17686E-05   -0.22226E-05   256   0.893E-03    0.716E-03
RMM:  13    -0.350268935982E+03    0.12104E-04   -0.31859E-06   208   0.398E-03    0.566E-03
RMM:  14    -0.350268940230E+03   -0.42482E-05   -0.27398E-06   185   0.363E-03    0.584E-03
RMM:  15    -0.350268945419E+03   -0.51889E-05   -0.10319E-06   172   0.225E-03    0.531E-03
RMM:  16    -0.350268954903E+03   -0.94837E-05   -0.11863E-06   172   0.245E-03    0.505E-03
RMM:  17    -0.350268962280E+03   -0.73772E-05   -0.35690E-07   172   0.137E-03    0.513E-03
RMM:  18    -0.350268963998E+03   -0.17179E-05   -0.93599E-08   148   0.806E-04    0.505E-03
RMM:  19    -0.350268963786E+03    0.21257E-06   -0.73861E-08   134   0.699E-04
   3 F= -.35157945E+03 E0= -.35157945E+03  d E =-.133562E+01
 curvature:  -0.11 expect dE=-0.145E+00 dE for cont linesearch -0.372E-02
 ZBRENT: interpolating
 opt :   0.2509  next Energy=  -351.583833 (dE=-0.134E+01)
 bond charge predicted
       N       E                     dE             d eps       ncg     rms          rms(c)
RMM:   1    -0.350274044873E+03   -0.50809E-02   -0.42537E-01   268   0.173E+00    0.133E-01
RMM:   2    -0.350273934198E+03    0.11067E-03   -0.70441E-03   276   0.178E-01    0.205E-01
RMM:   3    -0.350273106230E+03    0.82797E-03   -0.85395E-03   268   0.179E-01    0.551E-02
RMM:   4    -0.350273345828E+03   -0.23960E-03   -0.97549E-04   274   0.590E-02    0.571E-02
RMM:   5    -0.350273317845E+03    0.27983E-04   -0.10548E-04   268   0.215E-02    0.352E-02
RMM:   6    -0.350273374295E+03   -0.56450E-04   -0.46329E-04   268   0.409E-02    0.166E-02
RMM:   7    -0.350273386752E+03   -0.12458E-04   -0.90790E-06   234   0.686E-03    0.157E-02
RMM:   8    -0.350273396901E+03   -0.10148E-04   -0.33133E-05   268   0.114E-02    0.529E-03
RMM:   9    -0.350273398480E+03   -0.15791E-05   -0.65267E-07   172   0.206E-03    0.508E-03
RMM:  10    -0.350273405681E+03   -0.72016E-05   -0.11467E-06   172   0.237E-03    0.521E-03
RMM:  11    -0.350273409898E+03   -0.42172E-05   -0.14215E-07   159   0.871E-04    0.505E-03
RMM:  12    -0.350273411593E+03   -0.16947E-05   -0.10118E-07   147   0.763E-04    0.500E-03
RMM:  13    -0.350273411978E+03   -0.38446E-06   -0.56941E-09    80   0.404E-04
   4 F= -.35158381E+03 E0= -.35158381E+03  d E =-.133998E+01
 curvature:  -0.13 expect dE=-0.144E+00 dE for cont linesearch -0.625E-08
 trial: gam= 0.10671 g(F)=  0.114E+01 g(S)=  0.000E+00 ort = 0.731E-03 (trialstep = 0.850E+00)
 search vector abs. value=  0.127E+01
 bond charge predicted
       N       E                     dE             d eps       ncg     rms          rms(c)
RMM:   1    -0.351040540544E+03   -0.76713E+00   -0.13954E+02   268   0.313E+01    0.228E+00
RMM:   2    -0.350686635237E+03    0.35391E+00   -0.16155E+00   268   0.281E+00    0.190E+00
RMM:   3    -0.350672883091E+03    0.13752E-01   -0.38970E-01   268   0.115E+00    0.137E+00
RMM:   4    -0.350860307966E+03   -0.18742E+00   -0.61473E-01   268   0.140E+00    0.282E+00
RMM:   5    -0.350669161611E+03    0.19115E+00   -0.10608E+00   268   0.201E+00    0.339E-01
RMM:   6    -0.350684204850E+03   -0.15043E-01   -0.21438E-01   281   0.820E-01    0.631E-01
RMM:   7    -0.350667057080E+03    0.17148E-01   -0.21220E-02   268   0.308E-01    0.311E-01
RMM:   8    -0.350681404490E+03   -0.14347E-01   -0.14698E-02   268   0.233E-01    0.161E-01
RMM:   9    -0.350696733204E+03   -0.15329E-01   -0.18859E-02   268   0.249E-01    0.154E-01
RMM:  10    -0.350698772406E+03   -0.20392E-02   -0.45414E-03   268   0.139E-01    0.262E-02
RMM:  11    -0.350700299220E+03   -0.15268E-02   -0.45168E-04   276   0.425E-02    0.349E-02
RMM:  12    -0.350701058582E+03   -0.75936E-03   -0.66325E-04   268   0.501E-02    0.320E-02
RMM:  13    -0.350701221483E+03   -0.16290E-03   -0.79368E-05   268   0.194E-02    0.102E-02
RMM:  14    -0.350701286491E+03   -0.65008E-04   -0.10892E-05   246   0.636E-03    0.641E-03
RMM:  15    -0.350701305522E+03   -0.19031E-04   -0.74270E-06   233   0.508E-03    0.560E-03
RMM:  16    -0.350701299858E+03    0.56639E-05   -0.18253E-06   172   0.333E-03    0.513E-03
RMM:  17    -0.350701299697E+03    0.16082E-06   -0.26426E-07   172   0.134E-03
   5 F= -.35200938E+03 E0= -.35200938E+03  d E =-.425565E+00
 trial-energy change:   -0.425565  1 .order   -0.434993   -0.973145    0.103159
 step:   0.7646(harm=  0.7687)  dis= 0.03213  next Energy=  -352.014578 (dE=-0.431E+00)
 bond charge predicted
       N       E                     dE             d eps       ncg     rms          rms(c)
RMM:   1    -0.350708656283E+03   -0.73564E-02   -0.14096E+00   268   0.317E+00    0.202E-01
RMM:   2    -0.350706211607E+03    0.24447E-02   -0.10272E-02   268   0.226E-01    0.794E-02
RMM:   3    -0.350706201825E+03    0.97819E-05   -0.24320E-03   277   0.882E-02    0.184E-02
RMM:   4    -0.350706205697E+03   -0.38716E-05   -0.15601E-04   281   0.235E-02    0.216E-02
RMM:   5    -0.350706214040E+03   -0.83426E-05   -0.87504E-05   269   0.183E-02    0.114E-02
RMM:   6    -0.350706239803E+03   -0.25764E-04   -0.28524E-05   271   0.106E-02    0.143E-02
RMM:   7    -0.350706229633E+03    0.10171E-04   -0.17088E-05   268   0.838E-03    0.600E-03
RMM:   8    -0.350706233229E+03   -0.35965E-05   -0.11013E-06   172   0.244E-03    0.566E-03
RMM:   9    -0.350706230887E+03    0.23416E-05   -0.11975E-06   172   0.243E-03    0.511E-03
RMM:  10    -0.350706230527E+03    0.36009E-06   -0.40397E-07   160   0.140E-03
   6 F= -.35201452E+03 E0= -.35201452E+03  d E =-.430710E+00
 curvature:  -0.42 expect dE=-0.485E+00 dE for cont linesearch -0.183E-07
 trial: gam= 1.09490 g(F)=  0.114E+01 g(S)=  0.000E+00 ort = 0.234E-03 (trialstep = 0.396E+00)
 search vector abs. value=  0.266E+01
 bond charge predicted
       N       E                     dE             d eps       ncg     rms          rms(c)
RMM:   1    -0.351215889311E+03   -0.50966E+00   -0.66197E+01   268   0.220E+01    0.108E+00
RMM:   2    -0.351231748449E+03   -0.15859E-01   -0.23853E+00   268   0.306E+00    0.264E+00
RMM:   3    -0.351030770165E+03    0.20098E+00   -0.28528E-01   268   0.116E+00    0.122E+00
RMM:   4    -0.351027623426E+03    0.31467E-02   -0.41471E-01   268   0.119E+00    0.459E-01
RMM:   5    -0.351044427449E+03   -0.16804E-01   -0.29728E-02   268   0.373E-01    0.248E-01
RMM:   6    -0.351045681165E+03   -0.12537E-02   -0.73917E-03   268   0.186E-01    0.152E-01
RMM:   7    -0.351047957711E+03   -0.22765E-02   -0.50268E-03   268   0.136E-01    0.624E-02
RMM:   8    -0.351049052823E+03   -0.10951E-02   -0.11344E-03   268   0.722E-02    0.242E-02
RMM:   9    -0.351049381259E+03   -0.32844E-03   -0.59229E-05   270   0.172E-02    0.121E-02
RMM:  10    -0.351049464020E+03   -0.82762E-04   -0.21053E-04   268   0.276E-02    0.282E-02
RMM:  11    -0.351049459708E+03    0.43125E-05   -0.11932E-04   266   0.220E-02    0.767E-03
RMM:  12    -0.351049418544E+03    0.41164E-04   -0.16963E-05   265   0.762E-03    0.110E-02
RMM:  13    -0.351049399352E+03    0.19191E-04   -0.23171E-05   263   0.947E-03    0.584E-03
RMM:  14    -0.351049387419E+03    0.11933E-04   -0.28204E-06   204   0.358E-03    0.509E-03
RMM:  15    -0.351049379302E+03    0.81172E-05   -0.51412E-07   172   0.180E-03    0.480E-03
RMM:  16    -0.351049380567E+03   -0.12650E-05   -0.18489E-07   172   0.116E-03    0.479E-03
RMM:  17    -0.351049384334E+03   -0.37671E-05   -0.10194E-07   141   0.762E-04    0.478E-03
RMM:  18    -0.351049385735E+03   -0.14007E-05   -0.32281E-09    80   0.478E-04    0.478E-03
RMM:  19    -0.351049385717E+03    0.17750E-07    0.00000E+00    76   0.454E-04
   7 F= -.35235915E+03 E0= -.35235915E+03  d E =-.344628E+00
 trial-energy change:   -0.344628  1 .order   -0.344462   -0.453115   -0.235809
 step:   0.8267(harm=  0.8267)  dis= 0.04087  next Energy=  -352.486931 (dE=-0.472E+00)
 bond charge predicted
       N       E                     dE             d eps       ncg     rms          rms(c)
RMM:   1    -0.351375382529E+03   -0.32600E+00   -0.78117E+01   268   0.240E+01    0.121E+00
RMM:   2    -0.351163313040E+03    0.21207E+00   -0.48568E-01   268   0.167E+00    0.367E-01
RMM:   3    -0.351172492497E+03   -0.91795E-02   -0.39301E-02   280   0.313E-01    0.202E-01
RMM:   4    -0.351173495534E+03   -0.10030E-02   -0.64348E-03   289   0.140E-01    0.543E-02
RMM:   5    -0.351173805570E+03   -0.31004E-03   -0.44269E-03   268   0.119E-01    0.864E-02
RMM:   6    -0.351174156674E+03   -0.35110E-03   -0.59058E-04   268   0.516E-02    0.289E-02
RMM:   7    -0.351174556552E+03   -0.39988E-03   -0.83008E-04   268   0.533E-02    0.342E-02
RMM:   8    -0.351174706759E+03   -0.15021E-03   -0.33300E-04   287   0.360E-02    0.124E-02
RMM:   9    -0.351174810444E+03   -0.10369E-03   -0.43841E-05   268   0.129E-02    0.606E-03
RMM:  10    -0.351174869817E+03   -0.59372E-04   -0.98015E-06   246   0.586E-03    0.589E-03
RMM:  11    -0.351174879924E+03   -0.10108E-04   -0.41912E-06   229   0.427E-03    0.473E-03
RMM:  12    -0.351174872753E+03    0.71714E-05   -0.25439E-07   172   0.135E-03    0.464E-03
RMM:  13    -0.351174875077E+03   -0.23244E-05   -0.12613E-06   172   0.227E-03    0.451E-03
RMM:  14    -0.351174876402E+03   -0.13248E-05   -0.22877E-07   169   0.103E-03    0.440E-03
RMM:  15    -0.351174876102E+03    0.30034E-06   -0.10400E-07   150   0.764E-04
   8 F= -.35248621E+03 E0= -.35248621E+03  d E =-.471686E+00
 curvature:  -0.96 expect dE=-0.592E+00 dE for cont linesearch -0.281E-04
 trial: gam= 0.46935 g(F)=  0.615E+00 g(S)=  0.000E+00 ort =-0.881E-02 (trialstep = 0.483E+00)
 search vector abs. value=  0.119E+01
 bond charge predicted
       N       E                     dE             d eps       ncg     rms          rms(c)
RMM:   1    -0.351395629956E+03   -0.22075E+00   -0.37001E+01   268   0.169E+01    0.879E-01
RMM:   2    -0.351343722311E+03    0.51908E-01   -0.59962E-01   268   0.174E+00    0.128E+00
RMM:   3    -0.351302445206E+03    0.41277E-01   -0.30669E-01   268   0.107E+00    0.333E-01
RMM:   4    -0.351308979422E+03   -0.65342E-02   -0.25965E-02   270   0.313E-01    0.243E-01
RMM:   5    -0.351323207233E+03   -0.14228E-01   -0.27346E-02   268   0.305E-01    0.154E-01
RMM:   6    -0.351324180336E+03   -0.97310E-03   -0.93365E-03   268   0.193E-01    0.843E-02
RMM:   7    -0.351324572054E+03   -0.39172E-03   -0.23997E-03   281   0.900E-02    0.635E-02
RMM:   8    -0.351325504900E+03   -0.93285E-03   -0.12748E-03   269   0.709E-02    0.298E-02
RMM:   9    -0.351326185851E+03   -0.68095E-03   -0.29784E-04   278   0.324E-02    0.141E-02
RMM:  10    -0.351326599455E+03   -0.41360E-03   -0.11438E-04   268   0.239E-02    0.175E-02
RMM:  11    -0.351326648415E+03   -0.48960E-04   -0.42467E-05   270   0.132E-02    0.692E-03
RMM:  12    -0.351326703497E+03   -0.55082E-04   -0.93902E-06   249   0.654E-03    0.558E-03
RMM:  13    -0.351326713791E+03   -0.10295E-04   -0.55856E-06   231   0.451E-03    0.429E-03
RMM:  14    -0.351326712010E+03    0.17812E-05   -0.26272E-07   172   0.148E-03    0.419E-03
RMM:  15    -0.351326712762E+03   -0.75187E-06   -0.88396E-08   172   0.980E-04
   9 F= -.35263827E+03 E0= -.35263827E+03  d E =-.152059E+00
 trial-energy change:   -0.152059  1 .order   -0.152433   -0.294823   -0.010043
 step:   0.4995(harm=  0.4995)  dis= 0.01546  next Energy=  -352.638820 (dE=-0.153E+00)
 bond charge predicted
       N       E                     dE             d eps       ncg     rms          rms(c)
RMM:   1    -0.351326970777E+03   -0.25877E-03   -0.45939E-02   268   0.596E-01    0.316E-02
RMM:   2    -0.351326868290E+03    0.10249E-03   -0.25167E-04   268   0.405E-02    0.618E-03
RMM:   3    -0.351326881413E+03   -0.13124E-04   -0.16643E-05   263   0.731E-03    0.528E-03
RMM:   4    -0.351326883711E+03   -0.22972E-05   -0.16203E-06   172   0.302E-03    0.426E-03
RMM:   5    -0.351326882527E+03    0.11840E-05   -0.78762E-07   172   0.215E-03    0.409E-03
RMM:   6    -0.351326884839E+03   -0.23129E-05   -0.21953E-07   170   0.110E-03    0.411E-03
RMM:   7    -0.351326884163E+03    0.67635E-06   -0.34640E-08   105   0.474E-04
  10 F= -.35263845E+03 E0= -.35263845E+03  d E =-.152243E+00
 curvature:  -0.49 expect dE=-0.165E+00 dE for cont linesearch -0.765E-07
 trial: gam= 0.54137 g(F)=  0.338E+00 g(S)=  0.000E+00 ort = 0.433E-03 (trialstep = 0.486E+00)
 search vector abs. value=  0.688E+00
 bond charge predicted
       N       E                     dE             d eps       ncg     rms          rms(c)
RMM:   1    -0.351465333852E+03   -0.13845E+00   -0.14209E+01   268   0.105E+01    0.682E-01
RMM:   2    -0.351402428705E+03    0.62905E-01   -0.23719E-01   268   0.104E+00    0.538E-01
RMM:   3    -0.351423183455E+03   -0.20755E-01   -0.77069E-02   268   0.547E-01    0.311E-01
RMM:   4    -0.351433631293E+03   -0.10448E-01   -0.40672E-02   268   0.403E-01    0.286E-01
RMM:   5    -0.351433942888E+03   -0.31159E-03   -0.19048E-02   268   0.277E-01    0.856E-02
RMM:   6    -0.351436280018E+03   -0.23371E-02   -0.20806E-03   268   0.998E-02    0.325E-02
RMM:   7    -0.351439004468E+03   -0.27245E-02   -0.33802E-04   268   0.301E-02    0.278E-02
RMM:   8    -0.351439458632E+03   -0.45416E-03   -0.33626E-04   279   0.339E-02    0.189E-02
RMM:   9    -0.351439620191E+03   -0.16156E-03   -0.11913E-04   268   0.206E-02    0.890E-03
RMM:  10    -0.351439662895E+03   -0.42703E-04   -0.51670E-06   230   0.501E-03    0.603E-03
RMM:  11    -0.351439669619E+03   -0.67243E-05   -0.88910E-06   244   0.566E-03    0.436E-03
RMM:  12    -0.351439679509E+03   -0.98903E-05   -0.26747E-06   198   0.343E-03    0.422E-03
RMM:  13    -0.351439687657E+03   -0.81480E-05   -0.39704E-07   172   0.147E-03    0.424E-03
RMM:  14    -0.351439684386E+03    0.32714E-05   -0.28956E-07   172   0.131E-03    0.392E-03
RMM:  15    -0.351439683882E+03    0.50375E-06   -0.10283E-07   136   0.746E-04
  11 F= -.35275163E+03 E0= -.35275163E+03  d E =-.113178E+00
 trial-energy change:   -0.113178  1 .order   -0.112675   -0.164513   -0.060838
 step:   0.7587(harm=  0.7711)  dis= 0.01753  next Energy=  -352.768794 (dE=-0.130E+00)
 bond charge predicted
       N       E                     dE             d eps       ncg     rms          rms(c)
RMM:   1    -0.351464537739E+03   -0.24853E-01   -0.44810E+00   268   0.587E+00    0.390E-01
RMM:   2    -0.351456379425E+03    0.81583E-02   -0.30942E-02   268   0.440E-01    0.345E-02
RMM:   3    -0.351456749800E+03   -0.37037E-03   -0.27219E-03   272   0.939E-02    0.382E-02
RMM:   4    -0.351456749087E+03    0.71283E-06   -0.34816E-04   273   0.382E-02    0.779E-03
RMM:   5    -0.351456769616E+03   -0.20529E-04   -0.25510E-05   273   0.107E-02    0.853E-03
RMM:   6    -0.351456759809E+03    0.98062E-05   -0.24346E-06   193   0.318E-03    0.680E-03
RMM:   7    -0.351456754422E+03    0.53873E-05   -0.29575E-06   204   0.361E-03    0.465E-03
RMM:   8    -0.351456764000E+03   -0.95775E-05   -0.11962E-06   172   0.239E-03    0.388E-03
RMM:   9    -0.351456766330E+03   -0.23300E-05   -0.76118E-07   172   0.192E-03    0.374E-03
RMM:  10    -0.351456772525E+03   -0.61956E-05   -0.19079E-07   172   0.111E-03    0.374E-03
RMM:  11    -0.351456773560E+03   -0.10350E-05   -0.17874E-08   102   0.510E-04    0.372E-03
RMM:  12    -0.351456773898E+03   -0.33713E-06   -0.14743E-08    97   0.451E-04
  12 F= -.35276900E+03 E0= -.35276900E+03  d E =-.130543E+00
 curvature:  -0.78 expect dE=-0.167E+00 dE for cont linesearch -0.137E-05
 trial: gam= 0.62575 g(F)=  0.213E+00 g(S)=  0.000E+00 ort = 0.110E-02 (trialstep = 0.540E+00)
 search vector abs. value=  0.484E+00
 bond charge predicted
       N       E                     dE             d eps       ncg     rms          rms(c)
RMM:   1    -0.351525068191E+03   -0.68295E-01   -0.65057E+00   268   0.732E+00    0.533E-01
RMM:   2    -0.351528395424E+03   -0.33272E-02   -0.30571E-01   268   0.112E+00    0.111E+00
RMM:   3    -0.351502487524E+03    0.25908E-01   -0.29310E-01   268   0.101E+00    0.205E-01
RMM:   4    -0.351511321395E+03   -0.88339E-02   -0.17960E-02   268   0.261E-01    0.247E-01
RMM:   5    -0.351516215250E+03   -0.48939E-02   -0.15707E-02   268   0.238E-01    0.661E-02
RMM:   6    -0.351517300144E+03   -0.10849E-02   -0.11031E-03   268   0.692E-02    0.195E-02
RMM:   7    -0.351518938580E+03   -0.16384E-02   -0.23243E-04   268   0.336E-02    0.268E-02
RMM:   8    -0.351519423273E+03   -0.48469E-03   -0.34992E-04   268   0.352E-02    0.163E-02
RMM:   9    -0.351519757269E+03   -0.33400E-03   -0.65602E-05   268   0.177E-02    0.758E-03
RMM:  10    -0.351519840800E+03   -0.83531E-04   -0.91826E-06   247   0.592E-03    0.100E-02
RMM:  11    -0.351519880070E+03   -0.39270E-04   -0.19785E-05   263   0.865E-03    0.418E-03
RMM:  12    -0.351519896209E+03   -0.16139E-04   -0.19838E-06   183   0.276E-03    0.486E-03
RMM:  13    -0.351519909322E+03   -0.13114E-04   -0.37358E-06   213   0.392E-03    0.391E-03
RMM:  14    -0.351519912817E+03   -0.34949E-05   -0.18009E-07   172   0.116E-03    0.376E-03
RMM:  15    -0.351519912705E+03    0.11243E-06   -0.13400E-07   154   0.830E-04
  13 F= -.35283120E+03 E0= -.35283120E+03  d E =-.622060E-01
 trial-energy change:   -0.062206  1 .order   -0.062180   -0.115747   -0.008613
 step:   0.5839(harm=  0.5839)  dis= 0.01203  next Energy=  -352.831522 (dE=-0.625E-01)
 bond charge predicted
       N       E                     dE             d eps       ncg     rms          rms(c)
RMM:   1    -0.351520369548E+03   -0.45673E-03   -0.42017E-02   268   0.588E-01    0.424E-02
RMM:   2    -0.351520338604E+03    0.30944E-04   -0.30055E-04   268   0.463E-02    0.535E-03
RMM:   3    -0.351520350958E+03   -0.12354E-04   -0.25688E-05   269   0.106E-02    0.587E-03
RMM:   4    -0.351520351843E+03   -0.88544E-06   -0.22377E-06   173   0.375E-03
  14 F= -.35283157E+03 E0= -.35283157E+03  d E =-.625755E-01
 curvature:  -0.66 expect dE=-0.700E-01 dE for cont linesearch -0.306E-07
 trial: gam= 0.50394 g(F)=  0.106E+00 g(S)=  0.000E+00 ort = 0.150E-03 (trialstep = 0.549E+00)
 search vector abs. value=  0.229E+00
 bond charge predicted
       N       E                     dE             d eps       ncg     rms          rms(c)
RMM:   1    -0.351548656584E+03   -0.28306E-01   -0.40290E+00   268   0.581E+00    0.337E-01
RMM:   2    -0.351518972208E+03    0.29684E-01   -0.37423E-02   268   0.435E-01    0.289E-01
RMM:   3    -0.351530001112E+03   -0.11029E-01   -0.34294E-02   268   0.374E-01    0.311E-01
RMM:   4    -0.351534313970E+03   -0.43129E-02   -0.20812E-02   268   0.274E-01    0.139E-01
RMM:   5    -0.351537352774E+03   -0.30388E-02   -0.41918E-03   268   0.135E-01    0.333E-02
RMM:   6    -0.351539979500E+03   -0.26267E-02   -0.31563E-04   268   0.407E-02    0.222E-02
RMM:   7    -0.351541506823E+03   -0.15273E-02   -0.13639E-04   274   0.212E-02    0.289E-02
RMM:   8    -0.351542228716E+03   -0.72189E-03   -0.38018E-04   268   0.368E-02    0.197E-02
RMM:   9    -0.351542320009E+03   -0.91293E-04   -0.18117E-04   268   0.271E-02    0.160E-02
RMM:  10    -0.351542319674E+03    0.33470E-06   -0.29557E-05   268   0.114E-02    0.453E-03
RMM:  11    -0.351542338803E+03   -0.19129E-04   -0.57443E-05   268   0.135E-02    0.142E-02
RMM:  12    -0.351542337926E+03    0.87661E-06   -0.34989E-05   268   0.119E-02    0.390E-03
RMM:  13    -0.351542327762E+03    0.10164E-04   -0.45109E-06   221   0.437E-03    0.515E-03
RMM:  14    -0.351542320528E+03    0.72346E-05   -0.14561E-06   172   0.265E-03    0.393E-03
RMM:  15    -0.351542315695E+03    0.48329E-05   -0.55801E-07   172   0.174E-03    0.372E-03
RMM:  16    -0.351542312141E+03    0.35538E-05   -0.11268E-07   172   0.951E-04    0.372E-03
RMM:  17    -0.351542311987E+03    0.15423E-06   -0.27272E-09    78   0.398E-04
  15 F= -.35285398E+03 E0= -.35285398E+03  d E =-.224069E-01
 trial-energy change:   -0.022407  1 .order   -0.022696   -0.058262    0.012869
 step:   0.4478(harm=  0.4498)  dis= 0.00791  next Energy=  -352.855168 (dE=-0.236E-01)
 bond charge predicted
       N       E                     dE             d eps       ncg     rms          rms(c)
RMM:   1    -0.351543813109E+03   -0.15010E-02   -0.13710E-01   268   0.107E+00    0.620E-02
RMM:   2    -0.351543568234E+03    0.24488E-03   -0.78675E-04   268   0.687E-02    0.966E-03
RMM:   3    -0.351543598541E+03   -0.30307E-04   -0.90914E-05   273   0.151E-02    0.556E-03
RMM:   4    -0.351543595123E+03    0.34181E-05   -0.38251E-06   200   0.429E-03    0.389E-03
RMM:   5    -0.351543596028E+03   -0.90518E-06   -0.90520E-07   172   0.211E-03
  16 F= -.35285517E+03 E0= -.35285517E+03  d E =-.236004E-01
 curvature:  -0.49 expect dE=-0.107E-01 dE for cont linesearch -0.309E-07
 trial: gam= 0.19725 g(F)=  0.220E-01 g(S)=  0.000E+00 ort = 0.121E-03 (trialstep = 0.529E+00)
 search vector abs. value=  0.310E-01
 bond charge predicted
       N       E                     dE             d eps       ncg     rms          rms(c)
RMM:   1    -0.351554181914E+03   -0.10587E-01   -0.87561E-01   268   0.260E+00    0.151E-01
RMM:   2    -0.351553825898E+03    0.35602E-03   -0.53554E-02   273   0.419E-01    0.469E-01
RMM:   3    -0.351550901708E+03    0.29242E-02   -0.53500E-02   268   0.450E-01    0.113E-01
RMM:   4    -0.351551900237E+03   -0.99853E-03   -0.16626E-03   268   0.960E-02    0.273E-02
RMM:   5    -0.351552130531E+03   -0.23029E-03   -0.42691E-04   268   0.400E-02    0.301E-02
RMM:   6    -0.351552201399E+03   -0.70868E-04   -0.39185E-04   268   0.384E-02    0.204E-02
RMM:   7    -0.351552246955E+03   -0.45556E-04   -0.10407E-04   275   0.209E-02    0.685E-03
RMM:   8    -0.351552268498E+03   -0.21544E-04   -0.80767E-06   239   0.541E-03    0.850E-03
RMM:   9    -0.351552270559E+03   -0.20605E-05   -0.11248E-05   256   0.627E-03    0.403E-03
RMM:  10    -0.351552277787E+03   -0.72279E-05   -0.43976E-07   172   0.144E-03    0.383E-03
RMM:  11    -0.351552282291E+03   -0.45039E-05   -0.63000E-07   172   0.169E-03    0.391E-03
RMM:  12    -0.351552280813E+03    0.14776E-05   -0.12841E-07   171   0.923E-04    0.384E-03
RMM:  13    -0.351552281513E+03   -0.70023E-06   -0.21025E-07   164   0.100E-03
  17 F= -.35286386E+03 E0= -.35286386E+03  d E =-.869110E-02
 trial-energy change:   -0.008691  1 .order   -0.008630   -0.011667   -0.005592
 step:   0.9672(harm=  1.0158)  dis= 0.00616  next Energy=  -352.866215 (dE=-0.110E-01)
 bond charge predicted
       N       E                     dE             d eps       ncg     rms          rms(c)
RMM:   1    -0.351556199743E+03   -0.39189E-02   -0.60050E-01   268   0.215E+00    0.125E-01
RMM:   2    -0.351554785853E+03    0.14139E-02   -0.32405E-03   268   0.138E-01    0.184E-02
RMM:   3    -0.351554875927E+03   -0.90073E-04   -0.47515E-04   268   0.366E-02    0.143E-02
RMM:   4    -0.351554876810E+03   -0.88310E-06   -0.35618E-05   270   0.123E-02    0.529E-03
RMM:   5    -0.351554871002E+03    0.58078E-05   -0.35856E-06   192   0.317E-03    0.458E-03
RMM:   6    -0.351554870292E+03    0.70988E-06   -0.38135E-07   172   0.145E-03
  18 F= -.35286646E+03 E0= -.35286646E+03  d E =-.112876E-01
 curvature:  -0.71 expect dE=-0.289E-01 dE for cont linesearch -0.291E-04
 trial: gam= 1.81410 g(F)=  0.409E-01 g(S)=  0.000E+00 ort = 0.113E-02 (trialstep = 0.130E+00)
 search vector abs. value=  0.147E+00
 bond charge predicted
       N       E                     dE             d eps       ncg     rms          rms(c)
RMM:   1    -0.351560782516E+03   -0.59115E-02   -0.40746E-01   268   0.177E+00    0.986E-02
RMM:   2    -0.351557934722E+03    0.28478E-02   -0.21085E-03   268   0.113E-01    0.698E-02
RMM:   3    -0.351558878045E+03   -0.94332E-03   -0.20195E-04   268   0.210E-02    0.628E-02
RMM:   4    -0.351559564430E+03   -0.68638E-03   -0.15929E-03   268   0.712E-02    0.389E-02
RMM:   5    -0.351559700216E+03   -0.13579E-03   -0.18943E-04   268   0.287E-02    0.200E-02
RMM:   6    -0.351559802195E+03   -0.10198E-03   -0.79441E-05   280   0.167E-02    0.420E-03
RMM:   7    -0.351559947137E+03   -0.14494E-03   -0.28881E-05   289   0.972E-03    0.105E-02
RMM:   8    -0.351559962742E+03   -0.15605E-04   -0.17342E-05   267   0.782E-03    0.385E-03
RMM:   9    -0.351559978129E+03   -0.15387E-04   -0.54949E-06   228   0.454E-03    0.555E-03
RMM:  10    -0.351559982842E+03   -0.47135E-05   -0.18577E-06   172   0.306E-03    0.405E-03
RMM:  11    -0.351559983994E+03   -0.11519E-05   -0.79213E-07   172   0.202E-03    0.371E-03
RMM:  12    -0.351559985439E+03   -0.14445E-05   -0.16273E-07   172   0.116E-03    0.370E-03
RMM:  13    -0.351559985345E+03    0.93964E-07   -0.82553E-09    88   0.497E-04
  19 F= -.35287163E+03 E0= -.35287163E+03  d E =-.516583E-02
 trial-energy change:   -0.005166  1 .order   -0.005120   -0.005587   -0.004652
 step:   0.4498(harm=  0.7767)  dis= 0.00698  next Energy=  -352.878036 (dE=-0.116E-01)
 bond charge predicted
       N       E                     dE             d eps       ncg     rms          rms(c)
RMM:   1    -0.351573512991E+03   -0.13528E-01   -0.24662E+00   268   0.437E+00    0.246E-01
RMM:   2    -0.351568206662E+03    0.53063E-02   -0.15513E-02   268   0.287E-01    0.518E-02
RMM:   3    -0.351568524002E+03   -0.31734E-03   -0.24941E-03   274   0.772E-02    0.268E-02
RMM:   4    -0.351568513394E+03    0.10609E-04   -0.85587E-05   268   0.198E-02    0.121E-02
RMM:   5    -0.351568511747E+03    0.16469E-05   -0.30033E-05   272   0.956E-03    0.429E-03
RMM:   6    -0.351568511549E+03    0.19804E-06   -0.29915E-06   190   0.347E-03
  20 F= -.35288028E+03 E0= -.35288028E+03  d E =-.138170E-01
 curvature:  -0.99 expect dE=-0.101E-01 dE for cont linesearch -0.211E-02
 ZBRENT: increasing intervall
 opt :   1.0896  next Energy=  -352.880050 (dE=-0.136E-01)
 bond charge predicted
       N       E                     dE             d eps       ncg     rms          rms(c)
RMM:   1    -0.351588056956E+03   -0.19545E-01   -0.98523E+00   268   0.873E+00    0.498E-01
RMM:   2    -0.351566534062E+03    0.21523E-01   -0.64526E-02   268   0.582E-01    0.938E-02
RMM:   3    -0.351568053500E+03   -0.15194E-02   -0.68426E-03   281   0.118E-01    0.182E-02
RMM:   4    -0.351568097441E+03   -0.43941E-04   -0.17330E-04   281   0.255E-02    0.962E-03
RMM:   5    -0.351568129499E+03   -0.32058E-04   -0.68423E-05   276   0.135E-02    0.933E-03
RMM:   6    -0.351568139102E+03   -0.96029E-05   -0.80985E-06   249   0.563E-03    0.430E-03
RMM:   7    -0.351568151446E+03   -0.12344E-04   -0.52248E-06   220   0.423E-03    0.440E-03
RMM:   8    -0.351568168700E+03   -0.17254E-04   -0.27328E-06   185   0.343E-03    0.372E-03
RMM:   9    -0.351568170378E+03   -0.16779E-05   -0.25810E-07   172   0.142E-03    0.361E-03
RMM:  10    -0.351568174819E+03   -0.44404E-05   -0.71004E-08   133   0.651E-04    0.356E-03
RMM:  11    -0.351568176975E+03   -0.21563E-05   -0.22128E-07   161   0.998E-04    0.353E-03
RMM:  12    -0.351568177130E+03   -0.15556E-06   -0.20167E-08    94   0.516E-04
  21 F= -.35288019E+03 E0= -.35288019E+03  d E =-.137320E-01
 curvature:   0.11 expect dE= 0.493E-02 dE for cont linesearch  0.257E-03
 ZBRENT: bracketing found
 ZBRENT: interpolating
 opt :   0.7595  next Energy=  -352.883020 (dE=-0.166E-01)
 bond charge predicted
       N       E                     dE             d eps       ncg     rms          rms(c)
RMM:   1    -0.351576800665E+03   -0.86237E-02   -0.26247E+00   268   0.451E+00    0.253E-01
RMM:   2    -0.351570999599E+03    0.58011E-02   -0.15449E-02   268   0.291E-01    0.736E-02
RMM:   3    -0.351571280219E+03   -0.28062E-03   -0.24911E-03   269   0.773E-02    0.895E-03
RMM:   4    -0.351571302725E+03   -0.22505E-04   -0.12544E-04   272   0.180E-02    0.721E-03
RMM:   5    -0.351571302081E+03    0.64319E-06   -0.16726E-05   229   0.489E-03    0.500E-03
RMM:   6    -0.351571301961E+03    0.12081E-06   -0.54040E-06   232   0.449E-03
  22 F= -.35288319E+03 E0= -.35288319E+03  d E =-.167283E-01
 curvature:  -1.13 expect dE=-0.179E-01 dE for cont linesearch -0.324E-06
 trial: gam= 0.49363 g(F)=  0.158E-01 g(S)=  0.000E+00 ort = 0.205E-03 (trialstep = 0.256E+00)
 search vector abs. value=  0.518E-01
 bond charge predicted
       N       E                     dE             d eps       ncg     rms          rms(c)
RMM:   1    -0.351575514830E+03   -0.42127E-02   -0.64587E-01   268   0.225E+00    0.102E-01
RMM:   2    -0.351573878283E+03    0.16365E-02   -0.40436E-03   268   0.154E-01    0.932E-02
RMM:   3    -0.351573683606E+03    0.19468E-03   -0.62275E-04   280   0.419E-02    0.642E-02
RMM:   4    -0.351573991734E+03   -0.30813E-03   -0.42999E-04   268   0.419E-02    0.546E-02
RMM:   5    -0.351574236194E+03   -0.24446E-03   -0.30654E-04   268   0.331E-02    0.163E-02
RMM:   6    -0.351574405993E+03   -0.16980E-03   -0.21897E-04   279   0.267E-02    0.166E-02
RMM:   7    -0.351574426752E+03   -0.20759E-04   -0.54774E-05   268   0.145E-02    0.449E-03
RMM:   8    -0.351574413722E+03    0.13030E-04   -0.18565E-05   286   0.761E-03    0.108E-02
RMM:   9    -0.351574419463E+03   -0.57406E-05   -0.40287E-05   268   0.117E-02    0.668E-03
RMM:  10    -0.351574418001E+03    0.14621E-05   -0.22371E-06   180   0.353E-03    0.715E-03
RMM:  11    -0.351574416874E+03    0.11268E-05   -0.45464E-06   222   0.430E-03    0.386E-03
RMM:  12    -0.351574415263E+03    0.16111E-05   -0.56027E-07   172   0.184E-03    0.359E-03
RMM:  13    -0.351574413703E+03    0.15596E-05   -0.12041E-07   168   0.867E-04    0.357E-03
RMM:  14    -0.351574413316E+03    0.38770E-06   -0.10358E-08    87   0.504E-04
  23 F= -.35288619E+03 E0= -.35288619E+03  d E =-.299964E-02
 trial-energy change:   -0.003000  1 .order   -0.002960   -0.004067   -0.001853
 step:   0.4366(harm=  0.4699)  dis= 0.00397  next Energy=  -352.886856 (dE=-0.367E-02)
 bond charge predicted
       N       E                     dE             d eps       ncg     rms          rms(c)
RMM:   1    -0.351575805070E+03   -0.13914E-02   -0.32203E-01   268   0.159E+00    0.726E-02
RMM:   2    -0.351575231216E+03    0.57385E-03   -0.19191E-03   268   0.103E-01    0.111E-02
RMM:   3    -0.351575257486E+03   -0.26270E-04   -0.20901E-04   280   0.206E-02    0.435E-03
RMM:   4    -0.351575267452E+03   -0.99661E-05   -0.53523E-06   214   0.447E-03    0.361E-03
RMM:   5    -0.351575271066E+03   -0.36140E-05   -0.97304E-07   178   0.159E-03    0.365E-03
RMM:   6    -0.351575271691E+03   -0.62522E-06   -0.21428E-07   150   0.887E-04
  24 F= -.35288697E+03 E0= -.35288697E+03  d E =-.377911E-02
 curvature:  -0.75 expect dE=-0.431E-02 dE for cont linesearch -0.131E-04
 trial: gam= 0.28646 g(F)=  0.576E-02 g(S)=  0.000E+00 ort = 0.952E-03 (trialstep = 0.292E+00)
 search vector abs. value=  0.106E-01
 bond charge predicted
       N       E                     dE             d eps       ncg     rms          rms(c)
RMM:   1    -0.351576956497E+03   -0.16854E-02   -0.19115E-01   268   0.121E+00    0.679E-02
RMM:   2    -0.351575181328E+03    0.17752E-02   -0.49244E-03   268   0.147E-01    0.109E-01
RMM:   3    -0.351575694247E+03   -0.51292E-03   -0.17227E-03   268   0.900E-02    0.349E-02
RMM:   4    -0.351576436881E+03   -0.74263E-03   -0.60594E-04   268   0.462E-02    0.403E-02
RMM:   5    -0.351576581043E+03   -0.14416E-03   -0.30302E-04   274   0.340E-02    0.185E-02
RMM:   6    -0.351576615111E+03   -0.34067E-04   -0.31854E-05   285   0.104E-02    0.219E-02
RMM:   7    -0.351576641937E+03   -0.26826E-04   -0.65292E-06   232   0.597E-03    0.210E-02
RMM:   8    -0.351576672045E+03   -0.30108E-04   -0.51103E-06   226   0.509E-03    0.164E-02
RMM:   9    -0.351576678240E+03   -0.61950E-05   -0.70231E-05   268   0.154E-02    0.589E-03
RMM:  10    -0.351576680958E+03   -0.27175E-05   -0.11414E-06   172   0.293E-03    0.418E-03
RMM:  11    -0.351576686149E+03   -0.51912E-05   -0.57305E-06   232   0.459E-03    0.463E-03
RMM:  12    -0.351576689376E+03   -0.32269E-05   -0.85232E-07   172   0.245E-03    0.366E-03
RMM:  13    -0.351576691754E+03   -0.23779E-05   -0.57492E-07   172   0.206E-03    0.353E-03
RMM:  14    -0.351576691417E+03    0.33688E-06   -0.10609E-07   172   0.932E-04
  25 F= -.35288841E+03 E0= -.35288841E+03  d E =-.144646E-02
 trial-energy change:   -0.001446  1 .order   -0.001446   -0.001762   -0.001130
 step:   0.8135(harm=  0.8135)  dis= 0.00333  next Energy=  -352.889421 (dE=-0.245E-02)
 bond charge predicted
       N       E                     dE             d eps       ncg     rms          rms(c)
RMM:   1    -0.351578476572E+03   -0.17848E-02   -0.60965E-01   268   0.216E+00    0.121E-01
RMM:   2    -0.351577565245E+03    0.91133E-03   -0.50529E-03   268   0.157E-01    0.199E-02
RMM:   3    -0.351577624030E+03   -0.58785E-04   -0.58885E-04   295   0.392E-02    0.212E-02
RMM:   4    -0.351577631980E+03   -0.79495E-05   -0.44540E-05   268   0.130E-02    0.779E-03
RMM:   5    -0.351577631342E+03    0.63752E-06   -0.11024E-05   253   0.587E-03    0.401E-03
RMM:   6    -0.351577630070E+03    0.12727E-05   -0.55025E-07   172   0.182E-03    0.399E-03
RMM:   7    -0.351577628515E+03    0.15544E-05   -0.39420E-07   172   0.157E-03    0.353E-03
RMM:   8    -0.351577627920E+03    0.59542E-06   -0.24025E-07   172   0.121E-03
  26 F= -.35288940E+03 E0= -.35288940E+03  d E =-.243205E-02
 curvature:  -0.71 expect dE=-0.388E-02 dE for cont linesearch -0.454E-06
 trial: gam= 1.03063 g(F)=  0.545E-02 g(S)=  0.000E+00 ort =-0.821E-04 (trialstep = 0.254E+00)
 search vector abs. value=  0.165E-01
 bond charge predicted
       N       E                     dE             d eps       ncg     rms          rms(c)
RMM:   1    -0.351579047595E+03   -0.14191E-02   -0.11611E-01   268   0.963E-01    0.490E-02
RMM:   2    -0.351578483622E+03    0.56397E-03   -0.11016E-03   268   0.726E-02    0.430E-02
RMM:   3    -0.351578624876E+03   -0.14125E-03   -0.22007E-04   273   0.263E-02    0.352E-02
RMM:   4    -0.351578833878E+03   -0.20900E-03   -0.18603E-04   268   0.290E-02    0.113E-02
RMM:   5    -0.351578878035E+03   -0.44157E-04   -0.13293E-05   248   0.722E-03    0.583E-03
RMM:   6    -0.351578894626E+03   -0.16591E-04   -0.28145E-06   194   0.346E-03    0.627E-03
RMM:   7    -0.351578893256E+03    0.13696E-05   -0.36587E-06   213   0.401E-03    0.731E-03
RMM:   8    -0.351578899204E+03   -0.59476E-05   -0.98912E-07   172   0.235E-03    0.620E-03
RMM:   9    -0.351578902015E+03   -0.28106E-05   -0.20404E-06   184   0.292E-03    0.421E-03
RMM:  10    -0.351578905922E+03   -0.39077E-05   -0.55056E-07   172   0.169E-03    0.377E-03
RMM:  11    -0.351578908763E+03   -0.28403E-05   -0.25144E-07   172   0.114E-03    0.362E-03
RMM:  12    -0.351578910605E+03   -0.18420E-05   -0.30934E-07   170   0.117E-03    0.348E-03
RMM:  13    -0.351578910814E+03   -0.20922E-06   -0.58654E-08   129   0.604E-04
  27 F= -.35289060E+03 E0= -.35289060E+03  d E =-.119946E-02
 trial-energy change:   -0.001199  1 .order   -0.001194   -0.001362   -0.001027
 step:   0.8495(harm=  1.0329)  dis= 0.00376  next Energy=  -352.891871 (dE=-0.247E-02)
 bond charge predicted
       N       E                     dE             d eps       ncg     rms          rms(c)
RMM:   1    -0.351581408676E+03   -0.24981E-02   -0.64098E-01   268   0.226E+00    0.115E-01
RMM:   2    -0.351580538565E+03    0.87011E-03   -0.47692E-03   269   0.153E-01    0.173E-02
RMM:   3    -0.351580621848E+03   -0.83283E-04   -0.55316E-04   297   0.323E-02    0.829E-03
RMM:   4    -0.351580622206E+03   -0.35821E-06   -0.10733E-05   231   0.632E-03    0.556E-03
RMM:   5    -0.351580621232E+03    0.97473E-06   -0.26742E-06   187   0.325E-03
  28 F= -.35289211E+03 E0= -.35289211E+03  d E =-.271452E-02
 curvature:  -1.50 expect dE=-0.102E-01 dE for cont linesearch -0.895E-04
 trial: gam= 0.99198 g(F)=  0.681E-02 g(S)=  0.000E+00 ort = 0.993E-03 (trialstep = 0.246E+00)
 search vector abs. value=  0.250E-01
 bond charge predicted
       N       E                     dE             d eps       ncg     rms          rms(c)
RMM:   1    -0.351582454568E+03   -0.18324E-02   -0.13623E-01   268   0.105E+00    0.649E-02
RMM:   2    -0.351580765966E+03    0.16886E-02   -0.90376E-04   268   0.709E-02    0.384E-02
RMM:   3    -0.351581243632E+03   -0.47767E-03   -0.28578E-04   268   0.284E-02    0.147E-02
RMM:   4    -0.351581981817E+03   -0.73819E-03   -0.60391E-05   268   0.154E-02    0.105E-02
RMM:   5    -0.351582070551E+03   -0.88734E-04   -0.37175E-05   268   0.122E-02    0.721E-03
RMM:   6    -0.351582162604E+03   -0.92053E-04   -0.19985E-06   185   0.321E-03    0.752E-03
RMM:   7    -0.351582219737E+03   -0.57132E-04   -0.66971E-06   251   0.534E-03    0.544E-03
RMM:   8    -0.351582261535E+03   -0.41798E-04   -0.61501E-06   229   0.467E-03    0.404E-03
RMM:   9    -0.351582277145E+03   -0.15610E-04   -0.74338E-07   172   0.212E-03    0.416E-03
RMM:  10    -0.351582279450E+03   -0.23050E-05   -0.36979E-07   172   0.132E-03    0.372E-03
RMM:  11    -0.351582280594E+03   -0.11439E-05   -0.51808E-07   170   0.149E-03    0.355E-03
RMM:  12    -0.351582280808E+03   -0.21465E-06   -0.93633E-08   160   0.761E-04
  29 F= -.35289376E+03 E0= -.35289376E+03  d E =-.164923E-02
 trial-energy change:   -0.001649  1 .order   -0.001663   -0.001917   -0.001408
 step:   0.9259(harm=  0.9259)  dis= 0.00648  next Energy=  -352.895724 (dE=-0.361E-02)
 bond charge predicted
       N       E                     dE             d eps       ncg     rms          rms(c)
RMM:   1    -0.351585540828E+03   -0.32602E-02   -0.10415E+00   268   0.290E+00    0.180E-01
RMM:   2    -0.351584034249E+03    0.15066E-02   -0.61118E-03   268   0.192E-01    0.296E-02
RMM:   3    -0.351584204773E+03   -0.17052E-03   -0.84150E-04   283   0.444E-02    0.113E-02
RMM:   4    -0.351584206055E+03   -0.12825E-05   -0.23446E-05   261   0.974E-03    0.618E-03
RMM:   5    -0.351584211309E+03   -0.52541E-05   -0.10549E-05   234   0.580E-03    0.388E-03
RMM:   6    -0.351584214112E+03   -0.28026E-05   -0.96070E-07   172   0.229E-03    0.355E-03
RMM:   7    -0.351584217789E+03   -0.36774E-05   -0.25785E-07   172   0.121E-03    0.354E-03
RMM:   8    -0.351584219745E+03   -0.19552E-05   -0.86440E-08   123   0.682E-04    0.353E-03
RMM:   9    -0.351584222817E+03   -0.30729E-05   -0.24787E-08    94   0.538E-04    0.351E-03
RMM:  10    -0.351584223312E+03   -0.49462E-06   -0.27747E-09    79   0.497E-04
  30 F= -.35289568E+03 E0= -.35289568E+03  d E =-.356569E-02
 curvature:  -1.49 expect dE=-0.160E-01 dE for cont linesearch -0.426E-08
 trial: gam= 1.89153 g(F)=  0.107E-01 g(S)=  0.000E+00 ort =-0.847E-05 (trialstep = 0.953E-01)
 search vector abs. value=  0.100E+00
 bond charge predicted
       N       E                     dE             d eps       ncg     rms          rms(c)
RMM:   1    -0.351585235357E+03   -0.10125E-02   -0.51677E-02   268   0.653E-01    0.403E-02
RMM:   2    -0.351584870536E+03    0.36482E-03   -0.36624E-04   268   0.458E-02    0.984E-03
RMM:   3    -0.351585020797E+03   -0.15026E-03   -0.11457E-04   269   0.191E-02    0.235E-02
RMM:   4    -0.351585102323E+03   -0.81526E-04   -0.17657E-04   268   0.250E-02    0.104E-02
RMM:   5    -0.351585147930E+03   -0.45607E-04   -0.11804E-05   254   0.702E-03    0.789E-03
RMM:   6    -0.351585161500E+03   -0.13570E-04   -0.54009E-06   232   0.458E-03    0.414E-03
RMM:   7    -0.351585168145E+03   -0.66448E-05   -0.94463E-07   172   0.235E-03    0.360E-03
RMM:   8    -0.351585175367E+03   -0.72221E-05   -0.11713E-06   172   0.281E-03    0.368E-03
RMM:   9    -0.351585177238E+03   -0.18708E-05   -0.20125E-07   172   0.150E-03    0.367E-03
RMM:  10    -0.351585179076E+03   -0.18385E-05   -0.21985E-07   172   0.128E-03    0.351E-03
RMM:  11    -0.351585179148E+03   -0.71501E-07   -0.20522E-09    80   0.460E-04
  31 F= -.35289664E+03 E0= -.35289664E+03  d E =-.956675E-03
 ZBRENT: can't locate minimum, use default step
 trial-energy change:   -0.000957  1 .order   -0.000964   -0.001023   -0.000905
 step:   0.3813(harm=  0.8264)  dis= 0.00602  next Energy=  -352.900112 (dE=-0.443E-02)
 bond charge predicted
       N       E                     dE             d eps       ncg     rms          rms(c)
RMM:   1    -0.351587803754E+03   -0.26247E-02   -0.46492E-01   268   0.196E+00    0.121E-01
RMM:   2    -0.351587264519E+03    0.53924E-03   -0.31494E-03   268   0.134E-01    0.146E-02
RMM:   3    -0.351587330954E+03   -0.66435E-04   -0.38719E-04   297   0.283E-02    0.582E-03
RMM:   4    -0.351587338413E+03   -0.74592E-05   -0.82859E-06   239   0.582E-03    0.383E-03
RMM:   5    -0.351587342908E+03   -0.44951E-05   -0.68667E-07   173   0.177E-03    0.375E-03
RMM:   6    -0.351587344748E+03   -0.18400E-05   -0.54461E-07   172   0.159E-03    0.363E-03
RMM:   7    -0.351587345991E+03   -0.12435E-05   -0.12801E-07   172   0.930E-04    0.357E-03
RMM:   8    -0.351587345207E+03    0.78405E-06   -0.67502E-08   132   0.642E-04
  32 F= -.35289881E+03 E0= -.35289881E+03  d E =-.312626E-02
 curvature:  -2.43 expect dE=-0.190E-01 dE for cont linesearch -0.799E-03
 ZBRENT: increasing intervall
 opt :   0.9532  next Energy=  -352.899945 (dE=-0.427E-02)
 bond charge predicted
       N       E                     dE             d eps       ncg     rms          rms(c)
RMM:   1    -0.351590302199E+03   -0.29562E-02   -0.18572E+00   268   0.392E+00    0.242E-01
RMM:   2    -0.351588113832E+03    0.21884E-02   -0.12603E-02   268   0.270E-01    0.400E-02
RMM:   3    -0.351588421348E+03   -0.30752E-03   -0.16772E-03   294   0.589E-02    0.774E-03
RMM:   4    -0.351588428672E+03   -0.73233E-05   -0.32692E-05   277   0.103E-02    0.481E-03
RMM:   5    -0.351588430488E+03   -0.18166E-05   -0.37779E-06   187   0.280E-03    0.431E-03
RMM:   6    -0.351588429937E+03    0.55167E-06   -0.73750E-07   172   0.179E-03
  33 F= -.35289990E+03 E0= -.35289990E+03  d E =-.422243E-02
 curvature:  -3.46 expect dE=-0.657E-01 dE for cont linesearch -0.120E-03
 trial: gam= 1.59457 g(F)=  0.190E-01 g(S)=  0.000E+00 ort =-0.186E-02 (trialstep = 0.999E-01)
 search vector abs. value=  0.268E+00
 bond charge predicted
       N       E                     dE             d eps       ncg     rms          rms(c)
RMM:   1    -0.351590072569E+03   -0.16421E-02   -0.20728E-01   268   0.128E+00    0.739E-02
RMM:   2    -0.351589474641E+03    0.59793E-03   -0.23040E-03   274   0.106E-01    0.623E-02
RMM:   3    -0.351589666760E+03   -0.19212E-03   -0.72228E-04   269   0.485E-02    0.153E-02
RMM:   4    -0.351589737592E+03   -0.70831E-04   -0.23988E-05   262   0.922E-03    0.131E-02
RMM:   5    -0.351589813065E+03   -0.75474E-04   -0.17182E-05   251   0.734E-03    0.983E-03
RMM:   6    -0.351589865487E+03   -0.52422E-04   -0.94267E-06   244   0.610E-03    0.895E-03
RMM:   7    -0.351589880664E+03   -0.15177E-04   -0.57558E-06   226   0.491E-03    0.567E-03
RMM:   8    -0.351589893492E+03   -0.12827E-04   -0.71968E-07   172   0.212E-03    0.420E-03
RMM:   9    -0.351589897979E+03   -0.44878E-05   -0.15831E-07   172   0.984E-04    0.377E-03
RMM:  10    -0.351589901392E+03   -0.34122E-05   -0.50991E-07   172   0.151E-03    0.363E-03
RMM:  11    -0.351589903256E+03   -0.18639E-05   -0.49952E-08   128   0.642E-04    0.357E-03
RMM:  12    -0.351589904189E+03   -0.93349E-06   -0.22971E-07   172   0.104E-03
  34 F= -.35290146E+03 E0= -.35290146E+03  d E =-.155623E-02
 ZBRENT: can't locate minimum, use default step
 trial-energy change:   -0.001556  1 .order   -0.001551   -0.001597   -0.001506
 step:   0.3995(harm=  1.7463)  dis= 0.01056  next Energy=  -352.913864 (dE=-0.140E-01)
 bond charge predicted
       N       E                     dE             d eps       ncg     rms          rms(c)
RMM:   1    -0.351595409947E+03   -0.55067E-02   -0.18652E+00   268   0.384E+00    0.220E-01
RMM:   2    -0.351593500303E+03    0.19096E-02   -0.14140E-02   272   0.271E-01    0.336E-02
RMM:   3    -0.351593754039E+03   -0.25374E-03   -0.16486E-03   295   0.621E-02    0.144E-02
RMM:   4    -0.351593760341E+03   -0.63016E-05   -0.56793E-05   271   0.144E-02    0.571E-03
RMM:   5    -0.351593762505E+03   -0.21638E-05   -0.53062E-06   211   0.379E-03    0.444E-03
RMM:   6    -0.351593759308E+03    0.31966E-05   -0.92069E-07   172   0.220E-03    0.380E-03
RMM:   7    -0.351593760764E+03   -0.14557E-05   -0.30031E-07   170   0.117E-03    0.375E-03
RMM:   8    -0.351593762164E+03   -0.14003E-05   -0.88089E-08   117   0.622E-04    0.368E-03
RMM:   9    -0.351593762618E+03   -0.45448E-06   -0.60116E-08   121   0.608E-04
  35 F= -.35290557E+03 E0= -.35290557E+03  d E =-.566408E-02
 curvature:  -4.84 expect dE=-0.844E-01 dE for cont linesearch -0.265E-02
 ZBRENT: increasing intervall
 opt :   0.9987  next Energy=  -352.911051 (dE=-0.111E-01)
 bond charge predicted
       N       E                     dE             d eps       ncg     rms          rms(c)
RMM:   1    -0.351606196745E+03   -0.12435E-01   -0.74556E+00   268   0.767E+00    0.440E-01
RMM:   2    -0.351597620084E+03    0.85767E-02   -0.55577E-02   270   0.541E-01    0.761E-02
RMM:   3    -0.351598770169E+03   -0.11501E-02   -0.64594E-03   295   0.120E-01    0.124E-02
RMM:   4    -0.351598816800E+03   -0.46631E-04   -0.14434E-04   286   0.219E-02    0.935E-03
RMM:   5    -0.351598803610E+03    0.13190E-04   -0.39590E-05   272   0.104E-02    0.849E-03
RMM:   6    -0.351598816627E+03   -0.13017E-04   -0.67957E-06   232   0.519E-03    0.622E-03
RMM:   7    -0.351598823375E+03   -0.67481E-05   -0.16714E-06   175   0.261E-03    0.539E-03
RMM:   8    -0.351598829446E+03   -0.60707E-05   -0.71316E-07   172   0.215E-03    0.436E-03
RMM:   9    -0.351598828050E+03    0.13959E-05   -0.20487E-07   172   0.121E-03    0.414E-03
RMM:  10    -0.351598829477E+03   -0.14271E-05   -0.96167E-08   163   0.884E-04    0.396E-03
RMM:  11    -0.351598829474E+03    0.36998E-08   -0.24227E-08   108   0.517E-04
  36 F= -.35291115E+03 E0= -.35291115E+03  d E =-.112442E-01
 curvature: -10.01 expect dE=-0.207E+00 dE for cont linesearch -0.156E-02
 ZBRENT: increasing intervall
 opt :   2.1971  next Energy=  -352.912127 (dE=-0.122E-01)
 bond charge predicted
       N       E                     dE             d eps       ncg     rms          rms(c)
RMM:   1    -0.351635162528E+03   -0.36333E-01   -0.29782E+01   268   0.153E+01    0.879E-01
RMM:   2    -0.351594177854E+03    0.40985E-01   -0.22082E-01   268   0.109E+00    0.125E-01
RMM:   3    -0.351598827009E+03   -0.46492E-02   -0.26680E-02   295   0.234E-01    0.277E-02
RMM:   4    -0.351598866479E+03   -0.39470E-04   -0.50177E-04   281   0.423E-02    0.189E-02
RMM:   5    -0.351598877520E+03   -0.11041E-04   -0.92725E-05   295   0.145E-02    0.213E-02
RMM:   6    -0.351598843491E+03    0.34029E-04   -0.10696E-04   271   0.194E-02    0.930E-03
RMM:   7    -0.351598846321E+03   -0.28299E-05   -0.15050E-06   175   0.354E-03    0.772E-03
RMM:   8    -0.351598858044E+03   -0.11723E-04   -0.43251E-06   222   0.450E-03    0.507E-03
RMM:   9    -0.351598866037E+03   -0.79929E-05   -0.53444E-07   172   0.186E-03    0.381E-03
RMM:  10    -0.351598860809E+03    0.52276E-05   -0.86163E-07   172   0.237E-03    0.402E-03
RMM:  11    -0.351598862145E+03   -0.13359E-05   -0.26450E-07   172   0.123E-03    0.465E-03
RMM:  12    -0.351598861399E+03    0.74631E-06   -0.19682E-07   172   0.101E-03
  37 F= -.35291225E+03 E0= -.35291225E+03  d E =-.123483E-01
 curvature:  -6.29 expect dE=-0.314E+00 dE for cont linesearch -0.521E-03
 trial: gam= 1.99494 g(F)=  0.500E-01 g(S)=  0.000E+00 ort =-0.471E-02 (trialstep = 0.127E+00)
 search vector abs. value=  0.110E+01
 bond charge predicted
       N       E                     dE             d eps       ncg     rms          rms(c)
RMM:   1    -0.351604957381E+03   -0.60952E-02   -0.16995E+00   268   0.362E+00    0.211E-01
RMM:   2    -0.351602645963E+03    0.23114E-02   -0.16538E-02   274   0.284E-01    0.233E-01
RMM:   3    -0.351601607315E+03    0.10386E-02   -0.11305E-02   268   0.199E-01    0.494E-02
RMM:   4    -0.351602404941E+03   -0.79763E-03   -0.14003E-03   270   0.793E-02    0.519E-02
RMM:   5    -0.351602810631E+03   -0.40569E-03   -0.63618E-04   268   0.485E-02    0.119E-02
RMM:   6    -0.351603006762E+03   -0.19613E-03   -0.62239E-05   281   0.145E-02    0.178E-02
RMM:   7    -0.351603009614E+03   -0.28520E-05   -0.13070E-04   268   0.211E-02    0.106E-02
RMM:   8    -0.351603044378E+03   -0.34764E-04   -0.15146E-05   276   0.809E-03    0.384E-03
RMM:   9    -0.351603074853E+03   -0.30475E-04   -0.41998E-06   208   0.376E-03    0.480E-03
RMM:  10    -0.351603083486E+03   -0.86337E-05   -0.69787E-07   172   0.196E-03    0.453E-03
RMM:  11    -0.351603086666E+03   -0.31800E-05   -0.89639E-07   172   0.202E-03    0.394E-03
RMM:  12    -0.351603087268E+03   -0.60189E-06   -0.16329E-07   172   0.970E-04
  38 F= -.35291663E+03 E0= -.35291663E+03  d E =-.437553E-02
 trial-energy change:   -0.004376  1 .order   -0.004302   -0.005144   -0.003460
 step:   0.2897(harm=  0.3872)  dis= 0.01495  next Energy=  -352.919005 (dE=-0.676E-02)
 bond charge predicted
       N       E                     dE             d eps       ncg     rms          rms(c)
RMM:   1    -0.351609267832E+03   -0.61812E-02   -0.28071E+00   268   0.465E+00    0.271E-01
RMM:   2    -0.351605675722E+03    0.35921E-02   -0.19758E-02   268   0.328E-01    0.370E-02
RMM:   3    -0.351606082833E+03   -0.40711E-03   -0.24460E-03   295   0.731E-02    0.154E-02
RMM:   4    -0.351606066376E+03    0.16458E-04   -0.50168E-05   277   0.138E-02    0.894E-03
RMM:   5    -0.351606070779E+03   -0.44033E-05   -0.12630E-05   260   0.589E-03    0.519E-03
RMM:   6    -0.351606072390E+03   -0.16111E-05   -0.10022E-06   172   0.231E-03    0.394E-03
RMM:   7    -0.351606070624E+03    0.17663E-05   -0.26185E-07   172   0.125E-03    0.371E-03
RMM:   8    -0.351606071039E+03   -0.41517E-06   -0.87688E-08   135   0.695E-04
  39 F= -.35291981E+03 E0= -.35291981E+03  d E =-.755734E-02
 curvature:  -4.50 expect dE=-0.504E-01 dE for cont linesearch -0.521E-03
 ZBRENT: increasing intervall
 opt :   0.6157  next Energy=  -352.918261 (dE=-0.601E-02)
 bond charge predicted
       N       E                     dE             d eps       ncg     rms          rms(c)
RMM:   1    -0.351618156018E+03   -0.12085E-01   -0.11230E+01   268   0.931E+00    0.540E-01
RMM:   2    -0.351602028591E+03    0.16127E-01   -0.80038E-02   268   0.665E-01    0.130E-01
RMM:   3    -0.351603881170E+03   -0.18526E-02   -0.91751E-03   294   0.141E-01    0.346E-02
RMM:   4    -0.351603932874E+03   -0.51704E-04   -0.30440E-04   283   0.319E-02    0.958E-03
RMM:   5    -0.351603940996E+03   -0.81225E-05   -0.43461E-05   298   0.105E-02    0.436E-03
RMM:   6    -0.351603943082E+03   -0.20863E-05   -0.18995E-06   177   0.306E-03    0.364E-03
RMM:   7    -0.351603943441E+03   -0.35812E-06   -0.65971E-07   172   0.168E-03
  40 F= -.35291809E+03 E0= -.35291809E+03  d E =-.584315E-02
 curvature:  13.35 expect dE= 0.177E+00 dE for cont linesearch  0.606E-02
 ZBRENT: bracketing found
 ZBRENT: interpolating
 opt :   0.3991  next Energy=  -352.920424 (dE=-0.817E-02)
 bond charge predicted
       N       E                     dE             d eps       ncg     rms          rms(c)
RMM:   1    -0.351611529498E+03   -0.75864E-02   -0.49407E+00   268   0.617E+00    0.366E-01
RMM:   2    -0.351605746951E+03    0.57825E-02   -0.37774E-02   268   0.449E-01    0.468E-02
RMM:   3    -0.351606577290E+03   -0.83034E-03   -0.38323E-03   298   0.913E-02    0.164E-02
RMM:   4    -0.351606591377E+03   -0.14087E-04   -0.69899E-05   278   0.159E-02    0.117E-02
RMM:   5    -0.351606587478E+03    0.38990E-05   -0.38820E-05   270   0.114E-02    0.465E-03
RMM:   6    -0.351606589197E+03   -0.17190E-05   -0.98217E-07   174   0.237E-03    0.407E-03
RMM:   7    -0.351606589115E+03    0.82835E-07   -0.31855E-07   162   0.109E-03
  41 F= -.35292046E+03 E0= -.35292046E+03  d E =-.821172E-02
 curvature:  -1.36 expect dE=-0.890E-02 dE for cont linesearch -0.187E-08
 trial: gam=-0.06503 g(F)=  0.655E-02 g(S)=  0.000E+00 ort = 0.388E-04 (trialstep = 0.181E+00)
 search vector abs. value=  0.112E-01
 bond charge predicted
       N       E                     dE             d eps       ncg     rms          rms(c)
RMM:   1    -0.351607737843E+03   -0.11486E-02   -0.30593E-02   268   0.491E-01    0.327E-02
RMM:   2    -0.351607555527E+03    0.18232E-03   -0.29732E-04   268   0.394E-02    0.262E-02
RMM:   3    -0.351607465621E+03    0.89906E-04   -0.33030E-04   268   0.337E-02    0.375E-02
RMM:   4    -0.351607495438E+03   -0.29816E-04   -0.10732E-04   268   0.213E-02    0.145E-02
RMM:   5    -0.351607679476E+03   -0.18404E-03   -0.39812E-05   268   0.126E-02    0.793E-03
RMM:   6    -0.351607704369E+03   -0.24893E-04   -0.69591E-06   237   0.575E-03    0.487E-03
RMM:   7    -0.351607704982E+03   -0.61317E-06   -0.12017E-06   172   0.269E-03
  42 F= -.35292153E+03 E0= -.35292153E+03  d E =-.107261E-02
 ZBRENT: can't locate minimum, use default step
 trial-energy change:   -0.001073  1 .order   -0.001069   -0.001187   -0.000952
 step:   0.7250(harm=  0.9157)  dis= 0.00286  next Energy=  -352.923459 (dE=-0.300E-02)
 bond charge predicted
       N       E                     dE             d eps       ncg     rms          rms(c)
RMM:   1    -0.351609950293E+03   -0.22459E-02   -0.27502E-01   268   0.147E+00    0.975E-02
RMM:   2    -0.351609551018E+03    0.39928E-03   -0.16886E-03   268   0.104E-01    0.115E-02
RMM:   3    -0.351609601821E+03   -0.50803E-04   -0.15145E-04   281   0.222E-02    0.102E-02
RMM:   4    -0.351609641708E+03   -0.39887E-04   -0.15719E-05   256   0.830E-03    0.413E-03
RMM:   5    -0.351609653826E+03   -0.12118E-04   -0.52645E-06   224   0.459E-03    0.585E-03
RMM:   6    -0.351609646912E+03    0.69141E-05   -0.17295E-06   172   0.297E-03    0.404E-03
RMM:   7    -0.351609643959E+03    0.29528E-05   -0.31947E-06   203   0.357E-03    0.405E-03
RMM:   8    -0.351609646901E+03   -0.29413E-05   -0.61162E-07   172   0.183E-03    0.350E-03
RMM:   9    -0.351609646872E+03    0.28629E-07   -0.26910E-07   172   0.121E-03
  43 F= -.35292335E+03 E0= -.35292335E+03  d E =-.288510E-02
 curvature:  -0.73 expect dE=-0.569E-02 dE for cont linesearch -0.107E-03
 trial: gam= 1.00792 g(F)=  0.780E-02 g(S)=  0.000E+00 ort = 0.128E-02 (trialstep = 0.149E+00)
 search vector abs. value=  0.217E-01
 bond charge predicted
       N       E                     dE             d eps       ncg     rms          rms(c)
RMM:   1    -0.351610827682E+03   -0.11808E-02   -0.16813E-02   268   0.396E-01    0.358E-02
RMM:   2    -0.351610523925E+03    0.30376E-03   -0.16142E-03   268   0.742E-02    0.962E-02
RMM:   3    -0.351610615900E+03   -0.91975E-04   -0.56729E-04   268   0.474E-02    0.605E-02
RMM:   4    -0.351610644510E+03   -0.28610E-04   -0.70252E-04   268   0.494E-02    0.878E-03
RMM:   5    -0.351610687303E+03   -0.42793E-04   -0.79397E-05   277   0.171E-02    0.163E-02
RMM:   6    -0.351610718158E+03   -0.30855E-04   -0.19224E-05   267   0.899E-03    0.582E-03
RMM:   7    -0.351610755780E+03   -0.37622E-04   -0.38358E-06   213   0.378E-03    0.442E-03
RMM:   8    -0.351610770864E+03   -0.15084E-04   -0.65970E-06   233   0.485E-03    0.529E-03
RMM:   9    -0.351610781717E+03   -0.10853E-04   -0.26827E-06   186   0.360E-03    0.354E-03
RMM:  10    -0.351610786007E+03   -0.42901E-05   -0.87143E-07   172   0.215E-03    0.365E-03
RMM:  11    -0.351610788290E+03   -0.22825E-05   -0.18336E-07   158   0.101E-03    0.369E-03
RMM:  12    -0.351610789383E+03   -0.10931E-05   -0.53849E-07   172   0.161E-03    0.353E-03
RMM:  13    -0.351610791147E+03   -0.17642E-05   -0.87877E-08   136   0.746E-04    0.357E-03
RMM:  14    -0.351610791366E+03   -0.21947E-06   -0.13786E-09    78   0.442E-04
  44 F= -.35292452E+03 E0= -.35292452E+03  d E =-.117576E-02
 trial-energy change:   -0.001176  1 .order   -0.001179   -0.001356   -0.001002
 step:   0.5714(harm=  0.5714)  dis= 0.00287  next Energy=  -352.925943 (dE=-0.260E-02)
 bond charge predicted
       N       E                     dE             d eps       ncg     rms          rms(c)
RMM:   1    -0.351612375869E+03   -0.15847E-02   -0.13465E-01   268   0.112E+00    0.101E-01
RMM:   2    -0.351612095505E+03    0.28036E-03   -0.12300E-03   268   0.878E-02    0.941E-03
RMM:   3    -0.351612124749E+03   -0.29244E-04   -0.14250E-04   287   0.225E-02    0.110E-02
RMM:   4    -0.351612122862E+03    0.18874E-05   -0.13674E-05   254   0.748E-03    0.423E-03
RMM:   5    -0.351612124465E+03   -0.16031E-05   -0.13479E-06   178   0.240E-03    0.364E-03
RMM:   6    -0.351612119200E+03    0.52656E-05   -0.47816E-07   172   0.156E-03    0.349E-03
RMM:   7    -0.351612119404E+03   -0.20461E-06   -0.13511E-07   141   0.803E-04
  45 F= -.35292594E+03 E0= -.35292594E+03  d E =-.259161E-02
 curvature:  -0.68 expect dE=-0.338E-02 dE for cont linesearch -0.876E-07
 trial: gam= 0.94271 g(F)=  0.495E-02 g(S)=  0.000E+00 ort =-0.528E-04 (trialstep = 0.210E+00)
 search vector abs. value=  0.242E-01
 bond charge predicted
       N       E                     dE             d eps       ncg     rms          rms(c)
RMM:   1    -0.351613139233E+03   -0.10200E-02   -0.76877E-02   268   0.811E-01    0.471E-02
RMM:   2    -0.351612706344E+03    0.43289E-03   -0.86012E-04   268   0.682E-02    0.439E-02
RMM:   3    -0.351612801521E+03   -0.95177E-04   -0.79562E-04   268   0.522E-02    0.305E-02
RMM:   4    -0.351612903964E+03   -0.10244E-03   -0.56643E-05   268   0.146E-02    0.164E-02
RMM:   5    -0.351612953466E+03   -0.49502E-04   -0.17650E-04   268   0.242E-02    0.142E-02
RMM:   6    -0.351613007704E+03   -0.54239E-04   -0.23826E-05   268   0.102E-02    0.460E-03
RMM:   7    -0.351613017096E+03   -0.93913E-05   -0.38898E-06   214   0.389E-03    0.363E-03
RMM:   8    -0.351613023367E+03   -0.62715E-05   -0.51824E-07   172   0.163E-03    0.364E-03
RMM:   9    -0.351613028440E+03   -0.50730E-05   -0.26048E-07   143   0.101E-03    0.372E-03
RMM:  10    -0.351613025574E+03    0.28662E-05   -0.96902E-08   167   0.913E-04    0.359E-03
RMM:  11    -0.351613025361E+03    0.21291E-06   -0.12464E-07   148   0.802E-04
  46 F= -.35292683E+03 E0= -.35292683E+03  d E =-.890033E-03
 trial-energy change:   -0.000890  1 .order   -0.000895   -0.001030   -0.000760
 step:   0.8021(harm=  0.8021)  dis= 0.00396  next Energy=  -352.927904 (dE=-0.197E-02)
 bond charge predicted
       N       E                     dE             d eps       ncg     rms          rms(c)
RMM:   1    -0.351615005703E+03   -0.19801E-02   -0.61033E-01   268   0.229E+00    0.132E-01
RMM:   2    -0.351614034212E+03    0.97149E-03   -0.35791E-03   268   0.156E-01    0.132E-02
RMM:   3    -0.351614110311E+03   -0.76099E-04   -0.26218E-04   268   0.294E-02    0.774E-03
RMM:   4    -0.351614128933E+03   -0.18622E-04   -0.14954E-05   237   0.802E-03    0.442E-03
RMM:   5    -0.351614135538E+03   -0.66051E-05   -0.38357E-06   208   0.358E-03    0.362E-03
RMM:   6    -0.351614138365E+03   -0.28269E-05   -0.25696E-07   172   0.122E-03    0.356E-03
RMM:   7    -0.351614139970E+03   -0.16053E-05   -0.82851E-08   132   0.698E-04    0.351E-03
RMM:   8    -0.351614138953E+03    0.10170E-05   -0.11358E-07   155   0.763E-04    0.350E-03
RMM:   9    -0.351614138747E+03    0.20568E-06   -0.77814E-09    86   0.480E-04
  47 F= -.35292790E+03 E0= -.35292790E+03  d E =-.195777E-02
 curvature:  -1.98 expect dE=-0.419E-02 dE for cont linesearch -0.402E-07
 trial: gam= 0.09325 g(F)=  0.212E-02 g(S)=  0.000E+00 ort =-0.222E-04 (trialstep = 0.329E+00)
 search vector abs. value=  0.232E-02
 bond charge predicted
       N       E                     dE             d eps       ncg     rms          rms(c)
RMM:   1    -0.351614809282E+03   -0.67033E-03   -0.15536E-02   268   0.355E-01    0.309E-02
RMM:   2    -0.351614528888E+03    0.28039E-03   -0.33690E-04   276   0.386E-02    0.275E-02
RMM:   3    -0.351614570573E+03   -0.41686E-04   -0.41042E-04   268   0.369E-02    0.222E-02
RMM:   4    -0.351614668269E+03   -0.97696E-04   -0.75376E-05   268   0.184E-02    0.619E-03
RMM:   5    -0.351614726166E+03   -0.57897E-04   -0.62438E-06   247   0.554E-03    0.903E-03
RMM:   6    -0.351614754641E+03   -0.28474E-04   -0.52836E-06   232   0.448E-03    0.482E-03
RMM:   7    -0.351614760306E+03   -0.56654E-05   -0.64385E-07   172   0.195E-03    0.505E-03
RMM:   8    -0.351614765870E+03   -0.55641E-05   -0.99028E-07   172   0.218E-03    0.388E-03
RMM:   9    -0.351614767966E+03   -0.20959E-05   -0.11610E-06   172   0.223E-03    0.352E-03
RMM:  10    -0.351614768886E+03   -0.91968E-06   -0.30238E-07   149   0.113E-03
  48 F= -.35292846E+03 E0= -.35292846E+03  d E =-.561574E-03
 trial-energy change:   -0.000562  1 .order   -0.000576   -0.000695   -0.000457
 step:   0.9614(harm=  0.9614)  dis= 0.00164  next Energy=  -352.928912 (dE=-0.102E-02)
 bond charge predicted
       N       E                     dE             d eps       ncg     rms          rms(c)
RMM:   1    -0.351615441563E+03   -0.67360E-03   -0.57623E-02   268   0.684E-01    0.586E-02
RMM:   2    -0.351615321438E+03    0.12013E-03   -0.53114E-04   268   0.560E-02    0.595E-03
RMM:   3    -0.351615331314E+03   -0.98758E-05   -0.48384E-05   289   0.123E-02    0.579E-03
RMM:   4    -0.351615332903E+03   -0.15896E-05   -0.56123E-06   221   0.472E-03    0.374E-03
RMM:   5    -0.351615330391E+03    0.25121E-05   -0.27336E-07   172   0.147E-03    0.367E-03
RMM:   6    -0.351615331062E+03   -0.67068E-06   -0.33656E-07   170   0.122E-03
  49 F= -.35292889E+03 E0= -.35292889E+03  d E =-.992444E-03
 curvature:  -0.53 expect dE=-0.152E-02 dE for cont linesearch -0.253E-07
 trial: gam= 1.35525 g(F)=  0.288E-02 g(S)=  0.000E+00 ort = 0.105E-04 (trialstep = 0.147E+00)
 search vector abs. value=  0.717E-02
 bond charge predicted
       N       E                     dE             d eps       ncg     rms          rms(c)
RMM:   1    -0.351615727712E+03   -0.39732E-03   -0.13209E-02   268   0.328E-01    0.204E-02
RMM:   2    -0.351615653905E+03    0.73807E-04   -0.24094E-04   268   0.333E-02    0.249E-02
RMM:   3    -0.351615665214E+03   -0.11310E-04   -0.63034E-05   268   0.160E-02    0.119E-02
RMM:   4    -0.351615697604E+03   -0.32390E-04   -0.18343E-04   268   0.247E-02    0.266E-02
RMM:   5    -0.351615691922E+03    0.56825E-05   -0.35246E-05   268   0.122E-02    0.117E-02
RMM:   6    -0.351615705802E+03   -0.13880E-04   -0.15880E-05   291   0.703E-03    0.503E-03
RMM:   7    -0.351615709970E+03   -0.41682E-05   -0.11578E-06   172   0.238E-03    0.427E-03
RMM:   8    -0.351615708141E+03    0.18290E-05   -0.33412E-07   172   0.131E-03    0.408E-03
RMM:   9    -0.351615699815E+03    0.83261E-05   -0.70987E-07   172   0.194E-03    0.373E-03
RMM:  10    -0.351615699871E+03   -0.56445E-07   -0.91282E-07   172   0.202E-03
  50 F= -.35292926E+03 E0= -.35292926E+03  d E =-.372306E-03
 trial-energy change:   -0.000372  1 .order   -0.000373   -0.000426   -0.000319
 step:   0.5837(harm=  0.5837)  dis= 0.00164  next Energy=  -352.929733 (dE=-0.845E-03)
 bond charge predicted
       N       E                     dE             d eps       ncg     rms          rms(c)
RMM:   1    -0.351616357491E+03   -0.65768E-03   -0.11586E-01   268   0.972E-01    0.588E-02
RMM:   2    -0.351616138475E+03    0.21902E-03   -0.70102E-04   268   0.647E-02    0.695E-03
RMM:   3    -0.351616131352E+03    0.71232E-05   -0.70864E-05   269   0.148E-02    0.959E-03
RMM:   4    -0.351616136050E+03   -0.46984E-05   -0.81517E-06   238   0.574E-03    0.487E-03
RMM:   5    -0.351616135318E+03    0.73230E-06   -0.20249E-06   182   0.299E-03
  51 F= -.35292971E+03 E0= -.35292971E+03  d E =-.818316E-03
 curvature:  -0.72 expect dE=-0.218E-02 dE for cont linesearch -0.173E-06
 trial: gam= 1.08215 g(F)=  0.301E-02 g(S)=  0.000E+00 ort =-0.415E-04 (trialstep = 0.149E+00)
 search vector abs. value=  0.113E-01
 bond charge predicted
       N       E                     dE             d eps       ncg     rms          rms(c)
RMM:   1    -0.351616622446E+03   -0.48640E-03   -0.39979E-02   268   0.564E-01    0.283E-02
RMM:   2    -0.351616490784E+03    0.13166E-03   -0.27867E-04   268   0.396E-02    0.129E-02
RMM:   3    -0.351616518002E+03   -0.27218E-04   -0.69111E-05   268   0.164E-02    0.229E-02
RMM:   4    -0.351616539116E+03   -0.21114E-04   -0.31088E-05   268   0.106E-02    0.220E-02
RMM:   5    -0.351616553411E+03   -0.14295E-04   -0.62783E-05   268   0.148E-02    0.684E-03
RMM:   6    -0.351616558316E+03   -0.49045E-05   -0.44374E-06   224   0.478E-03    0.738E-03
RMM:   7    -0.351616566196E+03   -0.78802E-05   -0.26744E-06   199   0.349E-03    0.445E-03
RMM:   8    -0.351616566971E+03   -0.77504E-06   -0.37132E-06   222   0.377E-03
  52 F= -.35293013E+03 E0= -.35293013E+03  d E =-.422097E-03
 ZBRENT: can't locate minimum, use default step
 trial-energy change:   -0.000422  1 .order   -0.000417   -0.000441   -0.000392
 step:   0.5944(harm=  1.3358)  dis= 0.00156  next Energy=  -352.931690 (dE=-0.198E-02)
 bond charge predicted
       N       E                     dE             d eps       ncg     rms          rms(c)
RMM:   1    -0.351618097395E+03   -0.15312E-02   -0.35991E-01   268   0.169E+00    0.849E-02
RMM:   2    -0.351617514383E+03    0.58301E-03   -0.22778E-03   268   0.114E-01    0.138E-02
RMM:   3    -0.351617562526E+03   -0.48143E-04   -0.26691E-04   277   0.253E-02    0.904E-03
RMM:   4    -0.351617556284E+03    0.62415E-05   -0.17932E-05   249   0.834E-03    0.395E-03
RMM:   5    -0.351617560197E+03   -0.39128E-05   -0.51609E-06   221   0.393E-03    0.418E-03
RMM:   6    -0.351617561669E+03   -0.14719E-05   -0.97754E-07   172   0.226E-03    0.374E-03
RMM:   7    -0.351617562076E+03   -0.40670E-06   -0.30866E-06   196   0.347E-03
  53 F= -.35293110E+03 E0= -.35293110E+03  d E =-.138862E-02
 curvature:  -1.55 expect dE=-0.245E-02 dE for cont linesearch -0.366E-03
 ZBRENT: increasing intervall
 opt :   1.4860  next Energy=  -352.931657 (dE=-0.195E-02)
 bond charge predicted
       N       E                     dE             d eps       ncg     rms          rms(c)
RMM:   1    -0.351620393698E+03   -0.28320E-02   -0.14407E+00   268   0.338E+00    0.168E-01
RMM:   2    -0.351618009758E+03    0.23839E-02   -0.91298E-03   268   0.227E-01    0.243E-02
RMM:   3    -0.351618176904E+03   -0.16715E-03   -0.98994E-04   280   0.480E-02    0.569E-03
RMM:   4    -0.351618178915E+03   -0.20113E-05   -0.37256E-05   258   0.109E-02    0.619E-03
RMM:   5    -0.351618181433E+03   -0.25178E-05   -0.97854E-06   213   0.401E-03    0.543E-03
RMM:   6    -0.351618184025E+03   -0.25924E-05   -0.66278E-07   172   0.193E-03    0.451E-03
RMM:   7    -0.351618182639E+03    0.13861E-05   -0.43381E-07   172   0.152E-03    0.382E-03
RMM:   8    -0.351618183543E+03   -0.90412E-06   -0.18113E-07   172   0.986E-04
  54 F= -.35293166E+03 E0= -.35293166E+03  d E =-.195339E-02
 curvature:  -2.38 expect dE=-0.905E-02 dE for cont linesearch -0.286E-04
 trial: gam= 1.34976 g(F)=  0.380E-02 g(S)=  0.000E+00 ort =-0.369E-03 (trialstep = 0.201E+00)
 search vector abs. value=  0.234E-01
 bond charge predicted
       N       E                     dE             d eps       ncg     rms          rms(c)
RMM:   1    -0.351618910295E+03   -0.72766E-03   -0.97635E-02   268   0.899E-01    0.462E-02
RMM:   2    -0.351618374291E+03    0.53600E-03   -0.66756E-04   268   0.617E-02    0.198E-02
RMM:   3    -0.351618575166E+03   -0.20087E-03   -0.70829E-05   275   0.139E-02    0.164E-02
RMM:   4    -0.351618740329E+03   -0.16516E-03   -0.30140E-05   269   0.962E-03    0.207E-02
RMM:   5    -0.351618759987E+03   -0.19658E-04   -0.86757E-06   243   0.571E-03    0.143E-02
RMM:   6    -0.351618774502E+03   -0.14515E-04   -0.33247E-05   268   0.108E-02    0.637E-03
RMM:   7    -0.351618775410E+03   -0.90720E-06   -0.14052E-06   172   0.343E-03
  55 F= -.35293223E+03 E0= -.35293223E+03  d E =-.568824E-03
 trial-energy change:   -0.000569  1 .order   -0.000564   -0.000664   -0.000463
 step:   0.5314(harm=  0.6652)  dis= 0.00207  next Energy=  -352.932632 (dE=-0.972E-03)
 bond charge predicted
       N       E                     dE             d eps       ncg     rms          rms(c)
RMM:   1    -0.351619687248E+03   -0.91275E-03   -0.26391E-01   268   0.148E+00    0.758E-02
RMM:   2    -0.351619271559E+03    0.41569E-03   -0.16807E-03   268   0.971E-02    0.120E-02
RMM:   3    -0.351619320149E+03   -0.48590E-04   -0.18580E-04   282   0.201E-02    0.575E-03
RMM:   4    -0.351619329026E+03   -0.88765E-05   -0.98841E-06   233   0.607E-03    0.366E-03
RMM:   5    -0.351619337129E+03   -0.81034E-05   -0.20122E-06   185   0.256E-03    0.369E-03
RMM:   6    -0.351619339836E+03   -0.27071E-05   -0.39473E-07   172   0.171E-03    0.360E-03
RMM:   7    -0.351619346462E+03   -0.66264E-05   -0.62185E-07   172   0.180E-03    0.360E-03
RMM:   8    -0.351619347505E+03   -0.10422E-05   -0.21506E-07   172   0.105E-03    0.378E-03
RMM:   9    -0.351619348018E+03   -0.51355E-06   -0.97920E-09    87   0.462E-04
  56 F= -.35293276E+03 E0= -.35293276E+03  d E =-.110383E-02
 curvature:  -2.16 expect dE=-0.535E-02 dE for cont linesearch -0.503E-04
 ZBRENT: extrapolating
 opt :   0.6869  next Energy=  -352.932821 (dE=-0.116E-02)
 bond charge predicted
       N       E                     dE             d eps       ncg     rms          rms(c)
RMM:   1    -0.351619504260E+03   -0.15676E-03   -0.58479E-02   268   0.695E-01    0.357E-02
RMM:   2    -0.351619425070E+03    0.79190E-04   -0.37387E-04   268   0.458E-02    0.577E-03
RMM:   3    -0.351619434034E+03   -0.89635E-05   -0.40963E-05   261   0.961E-03    0.356E-03
RMM:   4    -0.351619433374E+03    0.66004E-06   -0.15446E-06   187   0.229E-03
  57 F= -.35293283E+03 E0= -.35293283E+03  d E =-.117159E-02
 curvature:  -2.47 expect dE=-0.815E-02 dE for cont linesearch -0.396E-08
 trial: gam= 0.64838 g(F)=  0.330E-02 g(S)=  0.000E+00 ort =-0.613E-05 (trialstep = 0.298E+00)
 search vector abs. value=  0.131E-01
 bond charge predicted
       N       E                     dE             d eps       ncg     rms          rms(c)
RMM:   1    -0.351620357477E+03   -0.92344E-03   -0.90062E-02   268   0.869E-01    0.508E-02
RMM:   2    -0.351619822968E+03    0.53451E-03   -0.81693E-04   268   0.672E-02    0.326E-02
RMM:   3    -0.351619963327E+03   -0.14036E-03   -0.28945E-04   268   0.300E-02    0.327E-02
RMM:   4    -0.351620065189E+03   -0.10186E-03   -0.43420E-04   268   0.395E-02    0.189E-02
RMM:   5    -0.351620197472E+03   -0.13228E-03   -0.21970E-05   268   0.106E-02    0.112E-02
RMM:   6    -0.351620242950E+03   -0.45478E-04   -0.72042E-06   232   0.463E-03    0.970E-03
RMM:   7    -0.351620257525E+03   -0.14575E-04   -0.13373E-06   172   0.319E-03    0.730E-03
RMM:   8    -0.351620269488E+03   -0.11963E-04   -0.59970E-06   231   0.494E-03    0.376E-03
RMM:   9    -0.351620269556E+03   -0.67763E-07   -0.63573E-07   172   0.205E-03
[...]
 opt :   3.7131  next Energy=  -352.939763 (dE=-0.343E-03)
 bond charge predicted
       N       E                     dE             d eps       ncg     rms          rms(c)
RMM:   1    -0.351626070395E+03   -0.55150E-03   -0.34403E-01   268   0.163E+00    0.749E-02
RMM:   2    -0.351625470885E+03    0.59951E-03   -0.21456E-03   268   0.105E-01    0.102E-02
RMM:   3    -0.351625522424E+03   -0.51539E-04   -0.28600E-04   292   0.221E-02    0.511E-03
RMM:   4    -0.351625521791E+03    0.63324E-06   -0.47829E-06   206   0.396E-03
  89 F= -.35293977E+03 E0= -.35293977E+03  d E =-.345903E-03
 curvature:  -4.03 expect dE=-0.187E-02 dE for cont linesearch -0.677E-05
 trial: gam= 2.21200 g(F)=  0.465E-03 g(S)=  0.000E+00 ort =-0.341E-04 (trialstep = 0.164E+00)
 search vector abs. value=  0.370E-02
 bond charge predicted
       N       E                     dE             d eps       ncg     rms          rms(c)
RMM:   1    -0.351625579828E+03   -0.57404E-04   -0.14456E-02   268   0.335E-01    0.173E-02
RMM:   2    -0.351625559318E+03    0.20510E-04   -0.13057E-04   275   0.242E-02    0.713E-03
RMM:   3    -0.351625548464E+03    0.10855E-04   -0.11049E-05   237   0.507E-03    0.587E-03
RMM:   4    -0.351625549936E+03   -0.14724E-05   -0.34402E-07   172   0.135E-03    0.566E-03
RMM:   5    -0.351625556509E+03   -0.65730E-05   -0.50464E-07   172   0.167E-03    0.535E-03
RMM:   6    -0.351625556265E+03    0.24430E-06   -0.45112E-07   172   0.147E-03
  90 F= -.35293982E+03 E0= -.35293982E+03  d E =-.552491E-04
 ZBRENT: can't locate minimum, use default step
 trial-energy change:   -0.000055  1 .order   -0.000061   -0.000064   -0.000059
 step:   0.6566(harm=  2.0705)  dis= 0.00153  next Energy=  -352.940169 (dE=-0.403E-03)
 bond charge predicted
       N       E                     dE             d eps       ncg     rms          rms(c)
RMM:   1    -0.351625787347E+03   -0.23084E-03   -0.12982E-01   268   0.101E+00    0.492E-02
RMM:   2    -0.351625620441E+03    0.16691E-03   -0.10321E-03   272   0.703E-02    0.883E-03
RMM:   3    -0.351625636728E+03   -0.16287E-04   -0.10860E-04   296   0.152E-02    0.519E-03
RMM:   4    -0.351625636803E+03   -0.74922E-07   -0.20319E-06   183   0.312E-03
  91 F= -.35293996E+03 E0= -.35293996E+03  d E =-.198464E-03
 curvature:  -4.43 expect dE=-0.196E-02 dE for cont linesearch -0.536E-04
 ZBRENT: increasing intervall
 opt :   1.6415  next Energy=  -352.940028 (dE=-0.262E-03)
 bond charge predicted
       N       E                     dE             d eps       ncg     rms          rms(c)
RMM:   1    -0.351626201719E+03   -0.56499E-03   -0.51938E-01   268   0.201E+00    0.978E-02
RMM:   2    -0.351625519572E+03    0.68215E-03   -0.40931E-03   272   0.140E-01    0.216E-02
RMM:   3    -0.351625584213E+03   -0.64640E-04   -0.42828E-04   296   0.299E-02    0.107E-02
RMM:   4    -0.351625582158E+03    0.20546E-05   -0.87438E-06   230   0.566E-03    0.805E-03
RMM:   5    -0.351625580624E+03    0.15334E-05   -0.11516E-06   177   0.200E-03    0.693E-03
RMM:   6    -0.351625579633E+03    0.99189E-06   -0.81470E-07   172   0.192E-03
  92 F= -.35294003E+03 E0= -.35294003E+03  d E =-.268096E-03
 curvature:  -5.26 expect dE=-0.782E-02 dE for cont linesearch -0.595E-05
 trial: gam= 3.03180 g(F)=  0.149E-02 g(S)=  0.000E+00 ort =-0.647E-04 (trialstep = 0.484E-01)
 search vector abs. value=  0.351E-01
 bond charge predicted
       N       E                     dE             d eps       ncg     rms          rms(c)
RMM:   1    -0.351625639794E+03   -0.59169E-04   -0.99772E-03   268   0.280E-01    0.132E-02
RMM:   2    -0.351625635213E+03    0.45807E-05   -0.79606E-05   272   0.193E-02    0.473E-03
RMM:   3    -0.351625627879E+03    0.73342E-05   -0.13749E-05   245   0.561E-03    0.491E-03
RMM:   4    -0.351625622797E+03    0.50813E-05   -0.90591E-07   172   0.206E-03    0.398E-03
RMM:   5    -0.351625620077E+03    0.27204E-05   -0.15250E-07   135   0.863E-04    0.390E-03
RMM:   6    -0.351625619028E+03    0.10491E-05   -0.11867E-07   165   0.812E-04    0.383E-03
RMM:   7    -0.351625617692E+03    0.13359E-05   -0.61711E-08   133   0.654E-04    0.366E-03
RMM:   8    -0.351625617499E+03    0.19264E-06   -0.83575E-08   143   0.676E-04
  93 F= -.35294008E+03 E0= -.35294008E+03  d E =-.457045E-04
 ZBRENT: can't locate minimum, use default step
 trial-energy change:   -0.000046  1 .order   -0.000060   -0.000062   -0.000057
 step:   0.1938(harm=  0.5272)  dis= 0.00150  next Energy=  -352.940374 (dE=-0.340E-03)
 bond charge predicted
       N       E                     dE             d eps       ncg     rms          rms(c)
RMM:   1    -0.351625829584E+03   -0.21189E-03   -0.89590E-02   268   0.839E-01    0.390E-02
RMM:   2    -0.351625690954E+03    0.13863E-03   -0.71032E-04   272   0.578E-02    0.592E-03
RMM:   3    -0.351625721559E+03   -0.30605E-04   -0.81133E-05   287   0.126E-02    0.619E-03
RMM:   4    -0.351625727804E+03   -0.62456E-05   -0.43619E-06   211   0.410E-03    0.386E-03
RMM:   5    -0.351625727963E+03   -0.15814E-06   -0.32954E-07   172   0.177E-03
  94 F= -.35294021E+03 E0= -.35294021E+03  d E =-.179912E-03
 curvature:  -3.70 expect dE=-0.267E-02 dE for cont linesearch -0.617E-04
 ZBRENT: increasing intervall
 opt :   0.4845  next Energy=  -352.940318 (dE=-0.285E-03)
 bond charge predicted
       N       E                     dE             d eps       ncg     rms          rms(c)
RMM:   1    -0.351626176181E+03   -0.44838E-03   -0.35844E-01   268   0.168E+00    0.777E-02
RMM:   2    -0.351625754870E+03    0.42131E-03   -0.28308E-03   272   0.116E-01    0.103E-02
RMM:   3    -0.351625795448E+03   -0.40578E-04   -0.29912E-04   294   0.242E-02    0.475E-03
RMM:   4    -0.351625793380E+03    0.20679E-05   -0.49131E-06   207   0.429E-03    0.394E-03
RMM:   5    -0.351625794332E+03   -0.95208E-06   -0.96042E-07   176   0.176E-03
  95 F= -.35294033E+03 E0= -.35294033E+03  d E =-.294801E-03
 curvature:  -6.27 expect dE=-0.553E-02 dE for cont linesearch -0.448E-06
 trial: gam= 0.52555 g(F)=  0.882E-03 g(S)=  0.000E+00 ort =-0.501E-04 (trialstep = 0.136E+00)
 search vector abs. value=  0.105E-01
 bond charge predicted
       N       E                     dE             d eps       ncg     rms          rms(c)
RMM:   1    -0.351625903387E+03   -0.11001E-03   -0.14248E-02   268   0.342E-01    0.185E-02
RMM:   2    -0.351625885540E+03    0.17846E-04   -0.12853E-04   277   0.250E-02    0.144E-02
RMM:   3    -0.351625888424E+03   -0.28836E-05   -0.45233E-05   269   0.120E-02    0.439E-03
RMM:   4    -0.351625887417E+03    0.10072E-05   -0.16219E-06   179   0.301E-03    0.383E-03
RMM:   5    -0.351625887533E+03   -0.11649E-06   -0.31184E-07   172   0.121E-03
  96 F= -.35294044E+03 E0= -.35294044E+03  d E =-.111039E-03
 ZBRENT: can't locate minimum, use default step
 trial-energy change:   -0.000111  1 .order   -0.000111   -0.000116   -0.000106
 step:   0.5426(harm=  1.5380)  dis= 0.00255  next Energy=  -352.940987 (dE=-0.658E-03)
 bond charge predicted
       N       E                     dE             d eps       ncg     rms          rms(c)
RMM:   1    -0.351626215445E+03   -0.32803E-03   -0.12817E-01   268   0.102E+00    0.540E-02
RMM:   2    -0.351626095472E+03    0.11997E-03   -0.10243E-03   275   0.710E-02    0.539E-03
RMM:   3    -0.351626107009E+03   -0.11537E-04   -0.96194E-05   296   0.146E-02    0.661E-03
RMM:   4    -0.351626108521E+03   -0.15123E-05   -0.55083E-06   221   0.472E-03    0.405E-03
RMM:   5    -0.351626110803E+03   -0.22820E-05   -0.84105E-07   172   0.205E-03    0.394E-03
RMM:   6    -0.351626109821E+03    0.98141E-06   -0.14805E-07   172   0.952E-04
  97 F= -.35294072E+03 E0= -.35294072E+03  d E =-.387259E-03
 curvature:  -4.70 expect dE=-0.231E-02 dE for cont linesearch -0.144E-03
 ZBRENT: increasing intervall
 opt :   1.3565  next Energy=  -352.941007 (dE=-0.678E-03)
 bond charge predicted
       N       E                     dE             d eps       ncg     rms          rms(c)
RMM:   1    -0.351626735594E+03   -0.62479E-03   -0.51243E-01   268   0.205E+00    0.108E-01
RMM:   2    -0.351626246815E+03    0.48878E-03   -0.39472E-03   272   0.141E-01    0.134E-02
RMM:   3    -0.351626290679E+03   -0.43864E-04   -0.41928E-04   296   0.303E-02    0.483E-03
RMM:   4    -0.351626290944E+03   -0.26428E-06   -0.68763E-06   221   0.498E-03
  98 F= -.35294101E+03 E0= -.35294101E+03  d E =-.678144E-03
 curvature:  -9.47 expect dE=-0.805E-02 dE for cont linesearch -0.159E-04
 trial: gam= 0.87327 g(F)=  0.850E-03 g(S)=  0.000E+00 ort = 0.133E-03 (trialstep = 0.380E+00)
 search vector abs. value=  0.911E-02
 bond charge predicted
       N       E                     dE             d eps       ncg     rms          rms(c)
RMM:   1    -0.351626516528E+03   -0.22585E-03   -0.10030E-01   268   0.907E-01    0.509E-02
RMM:   2    -0.351626291707E+03    0.22482E-03   -0.80822E-04   268   0.660E-02    0.258E-02
RMM:   3    -0.351626295415E+03   -0.37086E-05   -0.14539E-04   282   0.194E-02    0.143E-02
RMM:   4    -0.351626356650E+03   -0.61234E-04   -0.31151E-05   276   0.107E-02    0.143E-02
RMM:   5    -0.351626401957E+03   -0.45307E-04   -0.31028E-05   268   0.108E-02    0.537E-03
RMM:   6    -0.351626421141E+03   -0.19184E-04   -0.12104E-06   173   0.284E-03    0.369E-03
RMM:   7    -0.351626421676E+03   -0.53547E-06   -0.59323E-07   172   0.179E-03
  99 F= -.35294125E+03 E0= -.35294125E+03  d E =-.241064E-03
 trial-energy change:   -0.000241  1 .order   -0.000254   -0.000367   -0.000141
 step:   0.6166(harm=  0.6166)  dis= 0.00275  next Energy=  -352.941305 (dE=-0.298E-03)
 bond charge predicted
       N       E                     dE             d eps       ncg     rms          rms(c)
RMM:   1    -0.351626433541E+03   -0.12400E-04   -0.38968E-02   268   0.566E-01    0.321E-02
RMM:   2    -0.351626397862E+03    0.35679E-04   -0.31650E-04   271   0.410E-02    0.582E-03
RMM:   3    -0.351626401383E+03   -0.35205E-05   -0.35817E-05   285   0.953E-03    0.489E-03
RMM:   4    -0.351626394616E+03    0.67662E-05   -0.14449E-06   175   0.270E-03    0.377E-03
RMM:   5    -0.351626393278E+03    0.13387E-05   -0.13357E-06   172   0.242E-03    0.362E-03
RMM:   6    -0.351626392328E+03    0.94947E-06   -0.16819E-07   172   0.955E-04
 100 F= -.35294129E+03 E0= -.35294129E+03  d E =-.280699E-03
 curvature:  -2.91 expect dE=-0.102E-02 dE for cont linesearch -0.362E-07
 trial: gam= 0.65411 g(F)=  0.350E-03 g(S)=  0.000E+00 ort =-0.106E-04 (trialstep = 0.427E+00)
 search vector abs. value=  0.424E-02
 bond charge predicted
       N       E                     dE             d eps       ncg     rms          rms(c)
RMM:   1    -0.351626485134E+03   -0.91856E-04   -0.55805E-02   268   0.670E-01    0.365E-02
RMM:   2    -0.351626257041E+03    0.22809E-03   -0.66994E-04   275   0.559E-02    0.252E-02
RMM:   3    -0.351626322838E+03   -0.65796E-04   -0.11943E-04   277   0.202E-02    0.857E-03
RMM:   4    -0.351626400998E+03   -0.78160E-04   -0.87980E-06   246   0.605E-03    0.584E-03
RMM:   5    -0.351626418718E+03   -0.17720E-04   -0.17208E-06   178   0.278E-03    0.595E-03
RMM:   6    -0.351626425094E+03   -0.63762E-05   -0.69320E-07   172   0.209E-03    0.375E-03
RMM:   7    -0.351626433333E+03   -0.82388E-05   -0.11996E-06   172   0.239E-03    0.402E-03
RMM:   8    -0.351626435901E+03   -0.25678E-05   -0.36516E-07   172   0.133E-03    0.462E-03
RMM:   9    -0.351626437379E+03   -0.14781E-05   -0.11072E-07   163   0.807E-04    0.424E-03
RMM:  10    -0.351626437316E+03    0.62893E-07   -0.50759E-07   172   0.149E-03
 101 F= -.35294141E+03 E0= -.35294141E+03  d E =-.119160E-03
 trial-energy change:   -0.000119  1 .order   -0.000118   -0.000146   -0.000089
 step:   1.0841(harm=  1.0841)  dis= 0.00327  next Energy=  -352.941473 (dE=-0.186E-03)
 bond charge predicted
       N       E                     dE             d eps       ncg     rms          rms(c)
RMM:   1    -0.351626510100E+03   -0.72721E-04   -0.13199E-01   268   0.103E+00    0.558E-02
RMM:   2    -0.351626387095E+03    0.12300E-03   -0.10013E-03   269   0.732E-02    0.826E-03
RMM:   3    -0.351626399439E+03   -0.12344E-04   -0.10565E-04   301   0.162E-02    0.414E-03
RMM:   4    -0.351626401788E+03   -0.23482E-05   -0.13410E-06   177   0.259E-03    0.364E-03
RMM:   5    -0.351626405892E+03   -0.41041E-05   -0.34153E-07   170   0.112E-03    0.365E-03
RMM:   6    -0.351626407929E+03   -0.20378E-05   -0.11851E-07   122   0.641E-04    0.360E-03
RMM:   7    -0.351626408252E+03   -0.32218E-06   -0.44339E-08   102   0.551E-04
 102 F= -.35294149E+03 E0= -.35294149E+03  d E =-.204662E-03
 curvature:  -6.70 expect dE=-0.107E-02 dE for cont linesearch -0.154E-08
 trial: gam= 0.09889 g(F)=  0.159E-03 g(S)=  0.000E+00 ort = 0.986E-06 (trialstep = 0.559E+00)
 search vector abs. value=  0.201E-03
 bond charge predicted
       N       E                     dE             d eps       ncg     rms          rms(c)
RMM:   1    -0.351626474331E+03   -0.66401E-04   -0.10316E-02   268   0.282E-01    0.192E-02
RMM:   2    -0.351626410919E+03    0.63411E-04   -0.93823E-05   268   0.231E-02    0.204E-02
RMM:   3    -0.351626430437E+03   -0.19518E-04   -0.49504E-06   232   0.517E-03    0.162E-02
RMM:   4    -0.351626436113E+03   -0.56753E-05   -0.21852E-06   189   0.276E-03    0.159E-02
RMM:   5    -0.351626442566E+03   -0.64530E-05   -0.71822E-06   237   0.591E-03    0.927E-03
RMM:   6    -0.351626462715E+03   -0.20149E-04   -0.13170E-06   172   0.285E-03    0.658E-03
RMM:   7    -0.351626466622E+03   -0.39067E-05   -0.39137E-06   223   0.370E-03    0.419E-03
RMM:   8    -0.351626464031E+03    0.25906E-05   -0.79116E-07   172   0.208E-03    0.372E-03
RMM:   9    -0.351626460823E+03    0.32086E-05   -0.32786E-07   172   0.143E-03    0.386E-03
RMM:  10    -0.351626463101E+03   -0.22787E-05   -0.75537E-08   172   0.866E-04    0.370E-03
RMM:  11    -0.351626462918E+03    0.18283E-06   -0.76807E-08   134   0.675E-04
 103 F= -.35294151E+03 E0= -.35294151E+03  d E =-.135244E-04
 trial-energy change:   -0.000014  1 .order   -0.000006   -0.000089    0.000077
 step:   0.3358(harm=  0.3001)  dis= 0.00015  next Energy=  -352.941521 (dE=-0.283E-04)
 bond charge predicted
       N       E                     dE             d eps       ncg     rms          rms(c)
RMM:   1    -0.351626466289E+03   -0.31875E-05   -0.16407E-03   268   0.112E-01    0.832E-03
RMM:   2    -0.351626460644E+03    0.56448E-05   -0.99353E-06   261   0.828E-03    0.360E-03
RMM:   3    -0.351626459542E+03    0.11017E-05   -0.41303E-07   172   0.151E-03    0.356E-03
RMM:   4    -0.351626459669E+03   -0.12708E-06   -0.82377E-08   128   0.663E-04
 104 F= -.35294152E+03 E0= -.35294152E+03  d E =-.266748E-04
 curvature:  -0.19 expect dE=-0.658E-05 dE for cont linesearch -0.306E-06
 trial: gam= 0.34037 g(F)=  0.355E-04 g(S)=  0.000E+00 ort =-0.182E-04 (trialstep = 0.514E+00)
 search vector abs. value=  0.463E-04
 bond charge predicted
       N       E                     dE             d eps       ncg     rms          rms(c)
RMM:   1    -0.351626468807E+03   -0.92648E-05   -0.10597E-03   268   0.947E-02    0.763E-03
RMM:   2    -0.351626436560E+03    0.32247E-04   -0.39920E-05   268   0.127E-02    0.102E-02
RMM:   3    -0.351626442420E+03   -0.58599E-05   -0.16253E-05   262   0.819E-03    0.412E-03
RMM:   4    -0.351626461028E+03   -0.18608E-04   -0.48337E-07   172   0.181E-03    0.364E-03
RMM:   5    -0.351626466036E+03   -0.50077E-05   -0.30961E-07   172   0.135E-03    0.369E-03
RMM:   6    -0.351626467335E+03   -0.12995E-05   -0.80385E-08   148   0.728E-04    0.359E-03
RMM:   7    -0.351626468292E+03   -0.95712E-06   -0.86899E-08   153   0.741E-04
 105 F= -.35294153E+03 E0= -.35294153E+03  d E =-.112256E-04
 trial-energy change:   -0.000011  1 .order   -0.000010   -0.000015   -0.000005
 step:   0.7417(harm=  0.7417)  dis= 0.00017  next Energy=  -352.941530 (dE=-0.109E-04)
 bond charge predicted
       N       E                     dE             d eps       ncg     rms          rms(c)
RMM:   1    -0.351626469062E+03   -0.17269E-05   -0.20808E-04   268   0.420E-02    0.464E-03
RMM:   2    -0.351626469865E+03   -0.80351E-06   -0.13618E-06   172   0.301E-03    0.361E-03
RMM:   3    -0.351626469854E+03    0.11134E-07   -0.33380E-07   171   0.135E-03    0.355E-03
RMM:   4    -0.351626470196E+03   -0.34202E-06   -0.96031E-08   119   0.720E-04
 106 F= -.35294153E+03 E0= -.35294153E+03  d E =-.142826E-04
 curvature:  -0.59 expect dE=-0.360E-04 dE for cont linesearch -0.256E-10
 trial: gam= 1.40574 g(F)=  0.613E-04 g(S)=  0.000E+00 ort =-0.450E-07 (trialstep = 0.170E+00)
 search vector abs. value=  0.153E-03
 bond charge predicted
       N       E                     dE             d eps       ncg     rms          rms(c)
RMM:   1    -0.351626475888E+03   -0.60341E-05   -0.45667E-04   268   0.618E-02    0.504E-03
RMM:   2    -0.351626482240E+03   -0.63513E-05   -0.49286E-06   228   0.514E-03    0.397E-03
RMM:   3    -0.351626478739E+03    0.35007E-05   -0.49120E-07   172   0.166E-03    0.388E-03
RMM:   4    -0.351626476057E+03    0.26824E-05   -0.82619E-07   172   0.184E-03    0.374E-03
RMM:   5    -0.351626476068E+03   -0.11707E-07   -0.28910E-07   160   0.115E-03
 107 F= -.35294154E+03 E0= -.35294154E+03  d E =-.107010E-04
 ZBRENT: can't locate minimum, use default step
 trial-energy change:   -0.000011  1 .order   -0.000010   -0.000010   -0.000009
 step:   0.6790(harm=  1.1910)  dis= 0.00029  next Energy=  -352.941570 (dE=-0.365E-04)
 bond charge predicted
       N       E                     dE             d eps       ncg     rms          rms(c)
RMM:   1    -0.351626485501E+03   -0.94442E-05   -0.40980E-03   268   0.185E-01    0.109E-02
RMM:   2    -0.351626481331E+03    0.41697E-05   -0.32232E-05   268   0.133E-02    0.416E-03
RMM:   3    -0.351626481065E+03    0.26571E-06   -0.31696E-06   204   0.317E-03    0.387E-03
RMM:   4    -0.351626480745E+03    0.32049E-06   -0.42284E-07   172   0.134E-03
 108 F= -.35294156E+03 E0= -.35294156E+03  d E =-.298729E-04
 curvature:  -1.11 expect dE=-0.274E-04 dE for cont linesearch -0.438E-05
 trial: gam= 0.00000 g(F)=  0.246E-04 g(S)=  0.000E+00 ort = 0.245E-04 (trialstep = 0.272E+00)
 search vector abs. value=  0.246E-04
 bond charge predicted
       N       E                     dE             d eps       ncg     rms          rms(c)
RMM:   1    -0.351626494150E+03   -0.13084E-04   -0.20690E-04   268   0.394E-02    0.540E-03
RMM:   2    -0.351626474427E+03    0.19723E-04   -0.71167E-06   234   0.549E-03    0.565E-03
RMM:   3    -0.351626478027E+03   -0.35996E-05   -0.55663E-06   219   0.456E-03    0.393E-03
RMM:   4    -0.351626486614E+03   -0.85873E-05   -0.53322E-07   172   0.180E-03    0.357E-03
RMM:   5    -0.351626491301E+03   -0.46866E-05   -0.12621E-07   135   0.841E-04    0.360E-03
RMM:   6    -0.351626493220E+03   -0.19196E-05   -0.24076E-09    80   0.483E-04    0.355E-03
RMM:   7    -0.351626493208E+03    0.11611E-07   -0.12731E-07   169   0.849E-04
 109 F= -.35294157E+03 E0= -.35294157E+03  d E =-.402800E-05
 trial-energy change:   -0.000004  1 .order   -0.000005   -0.000007   -0.000003
 step:   0.4997(harm=  0.4997)  dis= 0.00009  next Energy=  -352.941569 (dE=-0.616E-05)
 bond charge predicted
       N       E                     dE             d eps       ncg     rms          rms(c)
RMM:   1    -0.351626501776E+03   -0.85564E-05   -0.14632E-04   268   0.331E-02    0.478E-03
RMM:   2    -0.351626500789E+03    0.98796E-06   -0.15013E-06   172   0.313E-03    0.359E-03
RMM:   3    -0.351626500481E+03    0.30706E-06   -0.38751E-07   172   0.150E-03    0.361E-03
RMM:   4    -0.351626501308E+03   -0.82621E-06   -0.88381E-08   138   0.716E-04
 110 F= -.35294157E+03 E0= -.35294157E+03  d E =-.504418E-05
 curvature:  -0.25 expect dE=-0.659E-05 dE for cont linesearch -0.152E-07
 trial: gam= 1.11916 g(F)=  0.264E-04 g(S)=  0.000E+00 ort =-0.122E-05 (trialstep = 0.143E+00)
 search vector abs. value=  0.545E-04
 reached required accuracy - stopping structural energy minimisation
 writing wavefunctions
