  93  93   0   0
  0.1016658E+02  0.9814900E-09  0.9814900E-09  0.9814900E-09  0.5000000E-15
  1.000000000000000E-004
  CAR 
 ice                                     
      9.67013254    -25.17341424  301     -1.82812448      1.00000000
    -25.173  0.0000E+00  0.0000E+00
    -25.057  0.0000E+00  0.0000E+00
    -24.941  0.0000E+00  0.0000E+00
    -24.825  0.0000E+00  0.0000E+00
    -24.709  0.0000E+00  0.0000E+00
    -24.593  0.0000E+00  0.0000E+00
    -24.477  0.0000E+00  0.0000E+00
    -24.360  0.0000E+00  0.0000E+00
    -24.244  0.0000E+00  0.0000E+00
    -24.128  0.0000E+00  0.0000E+00
    -24.012  0.3459E-02  0.4018E-03
    -23.896  0.3178E-01  0.4093E-02
    -23.780  0.3206E+00  0.4133E-01
    -23.664  0.2708E+01  0.3558E+00
    -23.547  0.9081E+01  0.1411E+01
    -23.431  0.7429E+01  0.2273E+01
    -23.315  0.1290E+02  0.3772E+01
    -23.199  0.1842E+02  0.5912E+01
    -23.083  0.1654E+02  0.7834E+01
    -22.967  0.1894E+02  0.1003E+02
    -22.851  0.2186E+02  0.1258E+02
    -22.734  0.1704E+02  0.1456E+02
    -22.618  0.2566E+02  0.1754E+02
    -22.502  0.2245E+02  0.2015E+02
    -22.386  0.1611E+02  0.2203E+02
    -22.270  0.2024E+02  0.2438E+02
    -22.154  0.2821E+02  0.2766E+02
    -22.037  0.2206E+02  0.3023E+02
    -21.921  0.2025E+02  0.3258E+02
    -21.805  0.1781E+02  0.3465E+02
    -21.689  0.1983E+02  0.3696E+02
    -21.573  0.1856E+02  0.3912E+02
    -21.457  0.1787E+02  0.4120E+02
    -21.341  0.1700E+02  0.4318E+02
    -21.224  0.9378E+01  0.4427E+02
    -21.108  0.1677E+02  0.4622E+02
    -20.992  0.2709E+02  0.4937E+02
    -20.876  0.2047E+02  0.5175E+02
    -20.760  0.1561E+02  0.5356E+02
    -20.644  0.1309E+02  0.5508E+02
    -20.528  0.1704E+02  0.5706E+02
    -20.411  0.7222E+01  0.5791E+02
    -20.295  0.3199E+01  0.5828E+02
    -20.179  0.8510E+01  0.5927E+02
    -20.063  0.5368E+01  0.5989E+02
    -19.947  0.8890E+00  0.6000E+02
    -19.831  0.7362E+00  0.6008E+02
    -19.715  0.4607E+01  0.6062E+02
    -19.598  0.8800E+01  0.6164E+02
    -19.482  0.2727E+01  0.6196E+02
    -19.366  0.3249E+00  0.6200E+02
    -19.250  0.0000E+00  0.6200E+02
    -19.134  0.0000E+00  0.6200E+02
    -19.018  0.0000E+00  0.6200E+02
    -18.902  0.0000E+00  0.6200E+02
    -18.785  0.0000E+00  0.6200E+02
    -18.669  0.0000E+00  0.6200E+02
    -18.553  0.0000E+00  0.6200E+02
    -18.437  0.0000E+00  0.6200E+02
    -18.321  0.0000E+00  0.6200E+02
    -18.205  0.0000E+00  0.6200E+02
    -18.089  0.0000E+00  0.6200E+02
    -17.972  0.0000E+00  0.6200E+02
    -17.856  0.0000E+00  0.6200E+02
    -17.740  0.0000E+00  0.6200E+02
    -17.624  0.0000E+00  0.6200E+02
    -17.508  0.0000E+00  0.6200E+02
    -17.392  0.0000E+00  0.6200E+02
    -17.276  0.0000E+00  0.6200E+02
    -17.159  0.0000E+00  0.6200E+02
    -17.043  0.0000E+00  0.6200E+02
    -16.927  0.0000E+00  0.6200E+02
    -16.811  0.0000E+00  0.6200E+02
    -16.695  0.0000E+00  0.6200E+02
    -16.579  0.0000E+00  0.6200E+02
    -16.463  0.0000E+00  0.6200E+02
    -16.346  0.0000E+00  0.6200E+02
    -16.230  0.0000E+00  0.6200E+02
    -16.114  0.0000E+00  0.6200E+02
    -15.998  0.0000E+00  0.6200E+02
    -15.882  0.0000E+00  0.6200E+02
    -15.766  0.0000E+00  0.6200E+02
    -15.650  0.0000E+00  0.6200E+02
    -15.533  0.0000E+00  0.6200E+02
    -15.417  0.0000E+00  0.6200E+02
    -15.301  0.0000E+00  0.6200E+02
    -15.185  0.0000E+00  0.6200E+02
    -15.069  0.0000E+00  0.6200E+02
    -14.953  0.0000E+00  0.6200E+02
    -14.836  0.0000E+00  0.6200E+02
    -14.720  0.0000E+00  0.6200E+02
    -14.604  0.0000E+00  0.6200E+02
    -14.488  0.0000E+00  0.6200E+02
    -14.372  0.0000E+00  0.6200E+02
    -14.256  0.0000E+00  0.6200E+02
    -14.140  0.0000E+00  0.6200E+02
    -14.023  0.0000E+00  0.6200E+02
    -13.907  0.0000E+00  0.6200E+02
    -13.791  0.0000E+00  0.6200E+02
    -13.675  0.0000E+00  0.6200E+02
    -13.559  0.0000E+00  0.6200E+02
    -13.443  0.0000E+00  0.6200E+02
    -13.327  0.0000E+00  0.6200E+02
    -13.210  0.0000E+00  0.6200E+02
    -13.094  0.0000E+00  0.6200E+02
    -12.978  0.0000E+00  0.6200E+02
    -12.862  0.0000E+00  0.6200E+02
    -12.746  0.0000E+00  0.6200E+02
    -12.630  0.0000E+00  0.6200E+02
    -12.514  0.0000E+00  0.6200E+02
    -12.397  0.0000E+00  0.6200E+02
    -12.281  0.0000E+00  0.6200E+02
    -12.165  0.2272E-02  0.6200E+02
    -12.049  0.2088E-01  0.6200E+02
    -11.933  0.2119E+00  0.6203E+02
    -11.817  0.1900E+01  0.6225E+02
    -11.701  0.8175E+01  0.6320E+02
    -11.584  0.7424E+01  0.6406E+02
    -11.468  0.8225E+01  0.6501E+02
    -11.352  0.7626E+01  0.6590E+02
    -11.236  0.5623E+01  0.6656E+02
    -11.120  0.9449E+01  0.6765E+02
    -11.004  0.6224E+01  0.6838E+02
    -10.888  0.1127E+02  0.6969E+02
    -10.771  0.1675E+02  0.7164E+02
    -10.655  0.2680E+02  0.7475E+02
    -10.539  0.2177E+02  0.7728E+02
    -10.423  0.1884E+02  0.7947E+02
    -10.307  0.3255E+02  0.8325E+02
    -10.191  0.3342E+02  0.8714E+02
    -10.075  0.2480E+02  0.9002E+02
     -9.958  0.2587E+02  0.9303E+02
     -9.842  0.2207E+02  0.9560E+02
     -9.726  0.1558E+02  0.9741E+02
     -9.610  0.5169E+01  0.9802E+02
     -9.494  0.6122E+01  0.9873E+02
     -9.378  0.1908E+02  0.1010E+03
     -9.262  0.2397E+02  0.1037E+03
     -9.145  0.2562E+02  0.1067E+03
     -9.029  0.1628E+02  0.1086E+03
     -8.913  0.2052E+02  0.1110E+03
     -8.797  0.1909E+02  0.1132E+03
     -8.681  0.2586E+02  0.1162E+03
     -8.565  0.2637E+02  0.1193E+03
     -8.449  0.2551E+02  0.1222E+03
     -8.332  0.1627E+02  0.1241E+03
     -8.216  0.1071E+02  0.1254E+03
     -8.100  0.4954E+01  0.1260E+03
     -7.984  0.4087E+01  0.1264E+03
     -7.868  0.1274E+02  0.1279E+03
     -7.752  0.1630E+02  0.1298E+03
     -7.635  0.1622E+02  0.1317E+03
     -7.519  0.2401E+02  0.1345E+03
     -7.403  0.2767E+02  0.1377E+03
     -7.287  0.2411E+02  0.1405E+03
     -7.171  0.1985E+02  0.1428E+03
     -7.055  0.1767E+02  0.1449E+03
     -6.939  0.1759E+02  0.1469E+03
     -6.822  0.1757E+02  0.1490E+03
     -6.706  0.1886E+02  0.1512E+03
     -6.590  0.2348E+02  0.1539E+03
     -6.474  0.1935E+02  0.1561E+03
     -6.358  0.1825E+02  0.1583E+03
     -6.242  0.2193E+02  0.1608E+03
     -6.126  0.2204E+02  0.1634E+03
     -6.009  0.2185E+02  0.1659E+03
     -5.893  0.2209E+02  0.1685E+03
     -5.777  0.2020E+02  0.1708E+03
     -5.661  0.2247E+02  0.1735E+03
     -5.545  0.3014E+02  0.1770E+03
     -5.429  0.3027E+02  0.1805E+03
     -5.313  0.2481E+02  0.1834E+03
     -5.196  0.2546E+02  0.1863E+03
     -5.080  0.2608E+02  0.1894E+03
     -4.964  0.2287E+02  0.1920E+03
     -4.848  0.2126E+02  0.1945E+03
     -4.732  0.2675E+02  0.1976E+03
     -4.616  0.3075E+02  0.2012E+03
     -4.500  0.3187E+02  0.2049E+03
     -4.383  0.4026E+02  0.2096E+03
     -4.267  0.4038E+02  0.2143E+03
     -4.151  0.2954E+02  0.2177E+03
     -4.035  0.3684E+02  0.2220E+03
     -3.919  0.4399E+02  0.2271E+03
     -3.803  0.2795E+02  0.2303E+03
     -3.687  0.2786E+02  0.2336E+03
     -3.570  0.3992E+02  0.2382E+03
     -3.454  0.3393E+02  0.2422E+03
     -3.338  0.2027E+02  0.2445E+03
     -3.222  0.1063E+02  0.2458E+03
     -3.106  0.5418E+01  0.2464E+03
     -2.990  0.9201E+01  0.2475E+03
     -2.874  0.3835E+01  0.2479E+03
     -2.757  0.5029E+00  0.2480E+03
     -2.641  0.0000E+00  0.2480E+03
     -2.525  0.0000E+00  0.2480E+03
     -2.409  0.0000E+00  0.2480E+03
     -2.293  0.0000E+00  0.2480E+03
     -2.177  0.0000E+00  0.2480E+03
     -2.061  0.0000E+00  0.2480E+03
     -1.944  0.0000E+00  0.2480E+03
     -1.828  0.0000E+00  0.2480E+03
     -1.712  0.0000E+00  0.2480E+03
     -1.596  0.0000E+00  0.2480E+03
     -1.480  0.0000E+00  0.2480E+03
     -1.364  0.0000E+00  0.2480E+03
     -1.248  0.0000E+00  0.2480E+03
     -1.131  0.0000E+00  0.2480E+03
     -1.015  0.0000E+00  0.2480E+03
     -0.899  0.0000E+00  0.2480E+03
     -0.783  0.0000E+00  0.2480E+03
     -0.667  0.0000E+00  0.2480E+03
     -0.551  0.0000E+00  0.2480E+03
     -0.434  0.0000E+00  0.2480E+03
     -0.318  0.0000E+00  0.2480E+03
     -0.202  0.0000E+00  0.2480E+03
     -0.086  0.0000E+00  0.2480E+03
      0.030  0.0000E+00  0.2480E+03
      0.146  0.0000E+00  0.2480E+03
      0.262  0.5423E-05  0.2480E+03
      0.379  0.1816E-03  0.2480E+03
      0.495  0.1864E-02  0.2480E+03
      0.611  0.1873E-01  0.2480E+03
      0.727  0.1572E+00  0.2480E+03
      0.843  0.6933E+00  0.2481E+03
      0.959  0.1458E+01  0.2483E+03
      1.075  0.2230E+01  0.2485E+03
      1.192  0.3056E+01  0.2489E+03
      1.308  0.3382E+01  0.2493E+03
      1.424  0.3060E+01  0.2496E+03
      1.540  0.2652E+01  0.2499E+03
      1.656  0.3021E+01  0.2503E+03
      1.772  0.4309E+01  0.2508E+03
      1.888  0.5270E+01  0.2514E+03
      2.005  0.4966E+01  0.2520E+03
      2.121  0.5573E+01  0.2526E+03
      2.237  0.6147E+01  0.2533E+03
      2.353  0.6058E+01  0.2541E+03
      2.469  0.6054E+01  0.2548E+03
      2.585  0.6856E+01  0.2556E+03
      2.701  0.7753E+01  0.2565E+03
      2.818  0.8045E+01  0.2574E+03
      2.934  0.7603E+01  0.2583E+03
      3.050  0.7483E+01  0.2591E+03
      3.166  0.8377E+01  0.2601E+03
      3.282  0.8703E+01  0.2611E+03
      3.398  0.1059E+02  0.2624E+03
      3.514  0.1070E+02  0.2636E+03
      3.631  0.1019E+02  0.2648E+03
      3.747  0.1204E+02  0.2662E+03
      3.863  0.1264E+02  0.2677E+03
      3.979  0.1147E+02  0.2690E+03
      4.095  0.1134E+02  0.2703E+03
      4.211  0.1259E+02  0.2718E+03
      4.327  0.1322E+02  0.2733E+03
      4.444  0.1410E+02  0.2750E+03
      4.560  0.1470E+02  0.2767E+03
      4.676  0.1404E+02  0.2783E+03
      4.792  0.1498E+02  0.2800E+03
      4.908  0.1598E+02  0.2819E+03
      5.024  0.1670E+02  0.2838E+03
      5.140  0.1820E+02  0.2860E+03
      5.257  0.1971E+02  0.2882E+03
      5.373  0.2013E+02  0.2906E+03
      5.489  0.2076E+02  0.2930E+03
      5.605  0.2221E+02  0.2956E+03
      5.721  0.2326E+02  0.2983E+03
      5.837  0.2362E+02  0.3010E+03
      5.953  0.2334E+02  0.3037E+03
      6.070  0.2444E+02  0.3066E+03
      6.186  0.2650E+02  0.3097E+03
      6.302  0.2748E+02  0.3129E+03
      6.418  0.2665E+02  0.3160E+03
      6.534  0.2610E+02  0.3190E+03
      6.650  0.2563E+02  0.3220E+03
      6.767  0.2591E+02  0.3250E+03
      6.883  0.2492E+02  0.3279E+03
      6.999  0.2316E+02  0.3306E+03
      7.115  0.2180E+02  0.3331E+03
      7.231  0.2045E+02  0.3355E+03
      7.347  0.1856E+02  0.3377E+03
      7.463  0.1680E+02  0.3396E+03
      7.580  0.1449E+02  0.3413E+03
      7.696  0.1145E+02  0.3426E+03
      7.812  0.7496E+01  0.3435E+03
      7.928  0.3102E+01  0.3439E+03
      8.044  0.8604E+00  0.3440E+03
      8.160  0.1801E+00  0.3440E+03
      8.276  0.2342E-01  0.3440E+03
      8.393  0.1632E-02  0.3440E+03
      8.509  0.0000E+00  0.3440E+03
      8.625  0.0000E+00  0.3440E+03
      8.741  0.0000E+00  0.3440E+03
      8.857  0.0000E+00  0.3440E+03
      8.973  0.0000E+00  0.3440E+03
      9.089  0.0000E+00  0.3440E+03
      9.206  0.0000E+00  0.3440E+03
      9.322  0.0000E+00  0.3440E+03
      9.438  0.0000E+00  0.3440E+03
      9.554  0.0000E+00  0.3440E+03
      9.670  0.0000E+00  0.3440E+03
