       N       E                     dE             d eps       ncg     rms          rms(c)
RMM:   1     0.332186613752E+04    0.33219E+04   -0.74364E+04 86688   0.878E+02
RMM:   2     0.105182707009E+04   -0.22700E+04   -0.24373E+04 86688   0.253E+02
RMM:   3     0.889284250811E+02   -0.96290E+03   -0.10258E+04 86688   0.187E+02
RMM:   4    -0.343630797480E+03   -0.43256E+03   -0.36796E+03 86688   0.130E+02
RMM:   5    -0.451450603708E+03   -0.10782E+03   -0.98206E+02 86688   0.686E+01
RMM:   6    -0.479177052656E+03   -0.27726E+02   -0.25333E+02 86688   0.355E+01
RMM:   7    -0.486556343313E+03   -0.73793E+01   -0.70686E+01 86688   0.181E+01
RMM:   8    -0.488773451081E+03   -0.22171E+01   -0.20898E+01 86688   0.964E+00
RMM:   9    -0.489646057642E+03   -0.87261E+00   -0.85679E+00221704   0.512E+00
RMM:  10    -0.489767362500E+03   -0.12130E+00   -0.11429E+00235488   0.149E+00
RMM:  11    -0.489769624902E+03   -0.22624E-02   -0.38627E-02221799   0.316E-01
RMM:  12    -0.489770265995E+03   -0.64109E-03   -0.62860E-03222845   0.819E-02    0.395E+01
RMM:  13    -0.448796082900E+03    0.40974E+02   -0.14517E+02208846   0.242E+01    0.151E+01
RMM:  14    -0.447607192872E+03    0.11889E+01   -0.53844E+00218238   0.415E+00    0.955E+00
RMM:  15    -0.447123133384E+03    0.48406E+00   -0.15848E+00214354   0.351E+00    0.132E+00
RMM:  16    -0.447080961804E+03    0.42172E-01   -0.28508E-01221760   0.955E-01    0.516E-01
RMM:  17    -0.447090176079E+03   -0.92143E-02   -0.35289E-02208802   0.372E-01    0.283E-01
RMM:  18    -0.447088032526E+03    0.21436E-02   -0.74163E-03216154   0.191E-01    0.830E-02
RMM:  19    -0.447087215570E+03    0.81696E-03   -0.21200E-03217845   0.786E-02    0.370E-02
RMM:  20    -0.447087016907E+03    0.19866E-03   -0.48073E-04219150   0.358E-02    0.188E-02
RMM:  21    -0.447086982969E+03    0.33938E-04   -0.86519E-05220788   0.154E-02    0.847E-03
RMM:  22    -0.447086976976E+03    0.59922E-05   -0.20403E-05205779   0.794E-03    0.379E-03
RMM:  23    -0.447086976747E+03    0.22969E-06   -0.46126E-06188807   0.429E-03
   1 F= -.45013932E+03 E0= -.45013932E+03  d E =-.709671E-10
