 vasp.5.4.4.18Apr17-6-g9f103f2a35 (build Feb 03 2021 10:20:21) gamma-only       
  
 executed on             LinuxGNU date 2024.04.12  09:59:29
 running on   40 total cores
 distrk:  each k-point on   40 cores,    1 groups
 distr:  one band on NCORES_PER_BAND=  20 cores,    2 groups


--------------------------------------------------------------------------------------------------------


 INCAR:
 POTCAR:    PAW_PBE H 15Jun2001                   
 POTCAR:    PAW_PBE O 08Apr2002                   

 ----------------------------------------------------------------------------- 
|                                                                             |
|           W    W    AA    RRRRR   N    N  II  N    N   GGGG   !!!           |
|           W    W   A  A   R    R  NN   N  II  NN   N  G    G  !!!           |
|           W    W  A    A  R    R  N N  N  II  N N  N  G       !!!           |
|           W WW W  AAAAAA  RRRRR   N  N N  II  N  N N  G  GGG   !            |
|           WW  WW  A    A  R   R   N   NN  II  N   NN  G    G                |
|           W    W  A    A  R    R  N    N  II  N    N   GGGG   !!!           |
|                                                                             |
|      For optimal performance we recommend to set                            |
|        NCORE= 4 - approx SQRT( number of cores)                             |
|      NCORE specifies how many cores store one orbital (NPAR=cpu/NCORE).     |
|      This setting can  greatly improve the performance of VASP for DFT.     |
|      The default,   NCORE=1            might be grossly inefficient         |
|      on modern multi-core architectures or massively parallel machines.     |
|      Do your own testing !!!!                                               |
|      Unfortunately you need to use the default for GW and RPA calculations. |
|      (for HF NCORE is supported but not extensively tested yet)             |
|                                                                             |
 ----------------------------------------------------------------------------- 

 POTCAR:    PAW_PBE H 15Jun2001                   
  local pseudopotential read in
  atomic valenz-charges read in
  non local Contribution for L=           0  read in
    real space projection operators read in
  non local Contribution for L=           0  read in
    real space projection operators read in
  non local Contribution for L=           1  read in
    real space projection operators read in
    PAW grid and wavefunctions read in
 
   number of l-projection  operators is LMAX  =           3
   number of lm-projection operators is LMMAX =           5
 
 POTCAR:    PAW_PBE O 08Apr2002                   
  local pseudopotential read in
  partial core-charges read in
  partial kinetic energy density read in
  kinetic energy density of atom read in
  atomic valenz-charges read in
  non local Contribution for L=           0  read in
    real space projection operators read in
  non local Contribution for L=           0  read in
    real space projection operators read in
  non local Contribution for L=           1  read in
    real space projection operators read in
  non local Contribution for L=           1  read in
    real space projection operators read in
    PAW grid and wavefunctions read in
 
   number of l-projection  operators is LMAX  =           4
   number of lm-projection operators is LMMAX =           8
 
 Optimization of the real space projectors (new method)

 maximal supplied QI-value         = 34.20
 optimisation between [QCUT,QGAM] = [  9.92, 20.18] = [ 27.55,114.04] Ry 
 Optimized for a Real-space Cutoff    1.26 Angstroem

   l    n(q)    QCUT    max X(q) W(low)/X(q) W(high)/X(q)  e(spline) 
   0      8     9.919    19.460    0.50E-03    0.23E-03    0.29E-06
   0      8     9.919    12.209    0.48E-03    0.23E-03    0.28E-06
   1      7     9.919     4.655    0.17E-03    0.75E-03    0.30E-06
 Optimization of the real space projectors (new method)

 maximal supplied QI-value         = 24.76
 optimisation between [QCUT,QGAM] = [ 10.15, 20.30] = [ 28.85,115.39] Ry 
 Optimized for a Real-space Cutoff    1.38 Angstroem

   l    n(q)    QCUT    max X(q) W(low)/X(q) W(high)/X(q)  e(spline) 
   0      8    10.150    20.381    0.22E-03    0.32E-03    0.29E-06
   0      8    10.150    15.268    0.23E-03    0.35E-03    0.30E-06
   1      8    10.150     5.964    0.46E-03    0.53E-03    0.21E-06
   1      8    10.150     5.382    0.38E-03    0.45E-03    0.19E-06
  PAW_PBE H 15Jun2001                   :
 energy of atom  1       EATOM=  -12.4884
 kinetic energy error for atom=    0.0098 (will be added to EATOM!!)
  PAW_PBE O 08Apr2002                   :
 energy of atom  2       EATOM= -432.3788
 kinetic energy error for atom=    0.1156 (will be added to EATOM!!)
 
 
 POSCAR: bilayer_5                               
  positions in direct lattice
  velocities in cartesian coordinates
 exchange correlation table for  LEXCH =        8
   RHO(1)=    0.500       N(1)  =     2000
   RHO(2)=  100.500       N(2)  =     4000
 


--------------------------------------------------------------------------------------------------------


 ion  position               nearest neighbor table
   1  0.167  0.063  0.296- 244 1.00
   2  0.167  0.063  0.449- 245 1.00
   3  0.396  0.333  0.296- 249 1.00
   4  0.396  0.333  0.449- 250 1.00
   5  0.104  0.167  0.219- 263 1.00
   6  0.104  0.167  0.372- 264 1.00
   7  0.104  0.167  0.525- 265 1.00
   8  0.063  0.396  0.219- 268 1.00
   9  0.063  0.396  0.372- 269 1.00
  10  0.063  0.396  0.525- 270 1.00
  11  0.167  0.104  0.219- 263 1.00
  12  0.167  0.104  0.372- 264 1.00
  13  0.167  0.104  0.525- 265 1.00
  14  0.396  0.063  0.219- 258 1.00
  15  0.396  0.063  0.372- 259 1.00
  16  0.396  0.063  0.525- 260 1.00
  17  0.063  0.167  0.296- 254 1.00
  18  0.063  0.167  0.449- 255 1.00
  19  0.333  0.396  0.296- 249 1.00
  20  0.333  0.396  0.449- 250 1.00
  21  0.176  0.000  0.186- 241 0.98
  22  0.172  0.000  0.340- 242 0.99
  23  0.171  0.000  0.492- 243 0.99
  24  0.237  0.000  0.214- 241 1.04
  25  0.234  0.000  0.367- 242 1.03
  26  0.234  0.000  0.520- 243 1.04
  27  0.324  0.324  0.186- 246 0.98
  28  0.328  0.328  0.340- 247 0.99
  29  0.329  0.329  0.492- 248 0.99
  30  0.263  0.263  0.214- 246 1.04
  31  0.266  0.266  0.367- 247 1.03
  32  0.266  0.266  0.520- 248 1.04
  33  1.000  0.176  0.186- 251 0.98
  34  1.000  0.172  0.340- 252 0.99
  35  1.000  0.171  0.492- 253 0.99
  36  1.000  0.237  0.214- 251 1.04
  37  1.000  0.234  0.367- 252 1.03
  38  1.000  0.234  0.520- 253 1.04
  39  0.329  0.000  0.263- 256 0.99
  40  0.328  0.000  0.416- 257 0.99
  41  0.266  0.000  0.291- 256 1.03
  42  0.266  0.000  0.443- 257 1.03
  43  0.171  0.171  0.263- 261 0.99
  44  0.172  0.172  0.416- 262 0.99
  45  0.234  0.234  0.291- 261 1.03
  46  0.234  0.234  0.443- 262 1.03
  47  1.000  0.329  0.263- 266 0.99
  48  1.000  0.328  0.416- 267 0.99
  49  0.000  0.266  0.291- 266 1.03
  50  0.000  0.266  0.443- 267 1.03
  51  0.667  0.063  0.296- 274 1.00
  52  0.667  0.063  0.449- 275 1.00
  53  0.896  0.333  0.296- 279 1.00
  54  0.896  0.333  0.449- 280 1.00
  55  0.437  0.104  0.296- 284 1.00
  56  0.437  0.104  0.449- 285 1.00
  57  0.604  0.167  0.219- 293 1.00
  58  0.604  0.167  0.372- 294 1.00
  59  0.604  0.167  0.525- 295 1.00
  60  0.563  0.396  0.219- 298 1.00
  61  0.563  0.396  0.372- 299 1.00
  62  0.563  0.396  0.525- 300 1.00
  63  0.437  0.333  0.219- 298 1.00
  64  0.437  0.333  0.372- 299 1.00
  65  0.437  0.333  0.525- 300 1.00
  66  0.667  0.104  0.219- 293 1.00
  67  0.667  0.104  0.372- 294 1.00
  68  0.667  0.104  0.525- 295 1.00
  69  0.896  0.063  0.219- 288 1.00
  70  0.896  0.063  0.372- 289 1.00
  71  0.896  0.063  0.525- 290 1.00
  72  0.563  0.167  0.296- 284 1.00
  73  0.563  0.167  0.449- 285 1.00
  74  0.833  0.396  0.296- 279 1.00
  75  0.833  0.396  0.449- 280 1.00
  76  0.676  0.000  0.186- 271 0.98
  77  0.672  0.000  0.340- 272 0.99
  78  0.671  0.000  0.492- 273 0.99
  79  0.737  0.000  0.214- 271 1.04
  80  0.734  0.000  0.367- 272 1.03
  81  0.734  0.000  0.520- 273 1.04
  82  0.824  0.324  0.186- 276 0.98
  83  0.828  0.328  0.340- 277 0.99
  84  0.829  0.329  0.492- 278 0.99
  85  0.763  0.263  0.214- 276 1.04
  86  0.766  0.266  0.367- 277 1.03
  87  0.766  0.266  0.520- 278 1.04
  88  0.500  0.176  0.186- 281 0.98
  89  0.500  0.172  0.340- 282 0.99
  90  0.500  0.171  0.492- 283 0.99
  91  0.500  0.237  0.214- 281 1.04
  92  0.500  0.234  0.367- 282 1.03
  93  0.500  0.234  0.520- 283 1.04
  94  0.829  0.000  0.263- 286 0.99
  95  0.828  0.000  0.416- 287 0.99
  96  0.766  0.000  0.291- 286 1.03
  97  0.766  0.000  0.443- 287 1.03
  98  0.671  0.171  0.263- 291 0.99
  99  0.672  0.172  0.416- 292 0.99
 100  0.734  0.234  0.291- 291 1.03
 101  0.734  0.234  0.443- 292 1.03
 102  0.500  0.329  0.263- 296 0.99
 103  0.500  0.328  0.416- 297 0.99
 104  0.500  0.266  0.291- 296 1.03
 105  0.500  0.266  0.443- 297 1.03
 106  0.167  0.563  0.296- 304 1.00
 107  0.167  0.563  0.449- 305 1.00
 108  0.396  0.833  0.296- 309 1.00
 109  0.396  0.833  0.449- 310 1.00
 110  0.333  0.437  0.219- 318 1.00
 111  0.333  0.437  0.372- 319 1.00
 112  0.333  0.437  0.525- 320 1.00
 113  0.104  0.667  0.219- 323 1.00
 114  0.104  0.667  0.372- 324 1.00
 115  0.104  0.667  0.525- 325 1.00
 116  0.063  0.896  0.219- 328 1.00
 117  0.063  0.896  0.372- 329 1.00
 118  0.063  0.896  0.525- 330 1.00
 119  0.167  0.604  0.219- 323 1.00
 120  0.167  0.604  0.372- 324 1.00
 121  0.167  0.604  0.525- 325 1.00
 122  0.396  0.563  0.219- 318 1.00
 123  0.396  0.563  0.372- 319 1.00
 124  0.396  0.563  0.525- 320 1.00
 125  0.063  0.667  0.296- 314 1.00
 126  0.063  0.667  0.449- 315 1.00
 127  0.333  0.896  0.296- 309 1.00
 128  0.333  0.896  0.449- 310 1.00
 129  0.104  0.437  0.296- 304 1.00
 130  0.104  0.437  0.449- 305 1.00
 131  0.176  0.500  0.186- 301 0.98
 132  0.172  0.500  0.340- 302 0.99
 133  0.171  0.500  0.492- 303 0.99
 134  0.237  0.500  0.214- 301 1.04
 135  0.234  0.500  0.367- 302 1.03
 136  0.234  0.500  0.520- 303 1.04
 137  0.324  0.824  0.186- 306 0.98
 138  0.328  0.828  0.340- 307 0.99
 139  0.329  0.829  0.492- 308 0.99
 140  0.263  0.763  0.214- 306 1.04
 141  0.266  0.766  0.367- 307 1.03
 142  0.266  0.766  0.520- 308 1.04
 143  1.000  0.676  0.186- 311 0.98
 144  1.000  0.672  0.340- 312 0.99
 145  1.000  0.671  0.492- 313 0.99
 146  1.000  0.737  0.214- 311 1.04
 147  1.000  0.734  0.367- 312 1.03
 148  1.000  0.734  0.520- 313 1.04
 149  0.329  0.500  0.263- 316 0.99
 150  0.328  0.500  0.416- 317 0.99
 151  0.266  0.500  0.291- 316 1.03
 152  0.266  0.500  0.443- 317 1.03
 153  0.171  0.671  0.263- 321 0.99
 154  0.172  0.672  0.416- 322 0.99
 155  0.234  0.734  0.291- 321 1.03
 156  0.234  0.734  0.443- 322 1.03
 157  0.000  0.829  0.263- 326 0.99
 158  0.000  0.828  0.416- 327 0.99
 159  1.000  0.766  0.291- 326 1.03
 160  1.000  0.766  0.443- 327 1.03
 161  0.667  0.563  0.296- 334 1.00
 162  0.667  0.563  0.449- 335 1.00
 163  0.896  0.833  0.296- 339 1.00
 164  0.896  0.833  0.449- 340 1.00
 165  0.437  0.604  0.296- 344 1.00
 166  0.437  0.604  0.449- 345 1.00
 167  0.833  0.437  0.219- 348 1.00
 168  0.833  0.437  0.372- 349 1.00
 169  0.833  0.437  0.525- 350 1.00
 170  0.604  0.667  0.219- 353 1.00
 171  0.604  0.667  0.372- 354 1.00
 172  0.604  0.667  0.525- 355 1.00
 173  0.563  0.896  0.219- 358 1.00
 174  0.563  0.896  0.372- 359 1.00
 175  0.563  0.896  0.525- 360 1.00
 176  0.437  0.833  0.219- 358 1.00
 177  0.437  0.833  0.372- 359 1.00
 178  0.437  0.833  0.525- 360 1.00
 179  0.667  0.604  0.219- 353 1.00
 180  0.667  0.604  0.372- 354 1.00
 181  0.667  0.604  0.525- 355 1.00
 182  0.896  0.563  0.219- 348 1.00
 183  0.896  0.563  0.372- 349 1.00
 184  0.896  0.563  0.525- 350 1.00
 185  0.563  0.667  0.296- 344 1.00
 186  0.563  0.667  0.449- 345 1.00
 187  0.833  0.896  0.296- 339 1.00
 188  0.833  0.896  0.449- 340 1.00
 189  0.604  0.437  0.296- 334 1.00
 190  0.604  0.437  0.449- 335 1.00
 191  0.676  0.500  0.186- 331 0.98
 192  0.672  0.500  0.340- 332 0.99
 193  0.671  0.500  0.492- 333 0.99
 194  0.737  0.500  0.214- 331 1.04
 195  0.734  0.500  0.367- 332 1.03
 196  0.734  0.500  0.520- 333 1.04
 197  0.824  0.824  0.186- 336 0.98
 198  0.828  0.828  0.340- 337 0.99
 199  0.829  0.829  0.492- 338 0.99
 200  0.763  0.763  0.214- 336 1.04
 201  0.766  0.766  0.367- 337 1.03
 202  0.766  0.766  0.520- 338 1.04
 203  0.500  0.676  0.186- 341 0.98
 204  0.500  0.672  0.340- 342 0.99
 205  0.500  0.671  0.492- 343 0.99
 206  0.500  0.737  0.214- 341 1.04
 207  0.500  0.734  0.367- 342 1.03
 208  0.500  0.734  0.520- 343 1.04
 209  0.829  0.500  0.263- 346 0.99
 210  0.828  0.500  0.416- 347 0.99
 211  0.766  0.500  0.291- 346 1.03
 212  0.766  0.500  0.443- 347 1.03
 213  0.671  0.671  0.263- 351 0.99
 214  0.672  0.672  0.416- 352 0.99
 215  0.734  0.734  0.291- 351 1.03
 216  0.734  0.734  0.443- 352 1.03
 217  0.500  0.829  0.263- 356 0.99
 218  0.500  0.828  0.416- 357 0.99
 219  0.500  0.766  0.291- 356 1.03
 220  0.500  0.766  0.443- 357 1.03
 221  0.937  0.104  0.296- 254 1.00
 222  0.937  0.104  0.449- 255 1.00
 223  0.937  0.333  0.219- 268 1.00
 224  0.937  0.333  0.372- 269 1.00
 225  0.937  0.333  0.525- 270 1.00
 226  0.937  0.604  0.296- 314 1.00
 227  0.937  0.604  0.449- 315 1.00
 228  0.937  0.833  0.219- 328 1.00
 229  0.937  0.833  0.372- 329 1.00
 230  0.937  0.833  0.525- 330 1.00
 231  0.333  0.937  0.219- 258 1.00
 232  0.333  0.937  0.372- 259 1.00
 233  0.333  0.937  0.525- 260 1.00
 234  0.104  0.937  0.296- 244 1.00
 235  0.104  0.937  0.449- 245 1.00
 236  0.833  0.937  0.219- 288 1.00
 237  0.833  0.937  0.372- 289 1.00
 238  0.833  0.937  0.525- 290 1.00
 239  0.604  0.937  0.296- 274 1.00
 240  0.604  0.937  0.449- 275 1.00
 241  0.171  0.000  0.206-  21 0.98  24 1.04
 242  0.169  0.000  0.360-  22 0.99  25 1.03
 243  0.168  0.000  0.512-  23 0.99  26 1.04
 244  0.169  0.000  0.303- 234 1.00   1 1.00
 245  0.169  0.000  0.456- 235 1.00   2 1.00
 246  0.329  0.329  0.206-  27 0.98  30 1.04
 247  0.331  0.331  0.360-  28 0.99  31 1.03
 248  0.332  0.332  0.512-  29 0.99  32 1.04
 249  0.331  0.331  0.303-  19 1.00   3 1.00
 250  0.331  0.331  0.456-  20 1.00   4 1.00
 251  0.000  0.171  0.206-  33 0.98  36 1.04
 252  0.000  0.169  0.360-  34 0.99  37 1.03
 253  0.000  0.168  0.512-  35 0.99  38 1.04
 254  0.000  0.169  0.303-  17 1.00 221 1.00
 255  0.000  0.169  0.456-  18 1.00 222 1.00
 256  0.331  0.000  0.284-  39 0.99  41 1.03
 257  0.331  0.000  0.436-  40 0.99  42 1.03
 258  0.332  0.000  0.227-  14 1.00 231 1.00
 259  0.331  0.000  0.379-  15 1.00 232 1.00
 260  0.329  0.000  0.531-  16 1.00 233 1.00
 261  0.169  0.169  0.284-  43 0.99  45 1.03
 262  0.169  0.169  0.436-  44 0.99  46 1.03
 263  0.168  0.168  0.227-  11 1.00   5 1.00
 264  0.169  0.169  0.379-  12 1.00   6 1.00
 265  0.171  0.171  0.531-  13 1.00   7 1.00
 266  1.000  0.331  0.284-  47 0.99  49 1.03
 267  1.000  0.331  0.436-  48 0.99  50 1.03
 268  1.000  0.332  0.227-   8 1.00 223 1.00
 269  1.000  0.331  0.379-   9 1.00 224 1.00
 270  1.000  0.329  0.531-  10 1.00 225 1.00
 271  0.671  0.000  0.206-  76 0.98  79 1.04
 272  0.669  0.000  0.360-  77 0.99  80 1.03
 273  0.668  0.000  0.512-  78 0.99  81 1.04
 274  0.669  0.000  0.303- 239 1.00  51 1.00
 275  0.669  0.000  0.456- 240 1.00  52 1.00
 276  0.829  0.329  0.206-  82 0.98  85 1.04
 277  0.831  0.331  0.360-  83 0.99  86 1.03
 278  0.832  0.332  0.512-  84 0.99  87 1.04
 279  0.831  0.331  0.303-  74 1.00  53 1.00
 280  0.831  0.331  0.456-  75 1.00  54 1.00
 281  0.500  0.171  0.206-  88 0.98  91 1.04
 282  0.500  0.169  0.360-  89 0.99  92 1.03
 283  0.500  0.168  0.512-  90 0.99  93 1.04
 284  0.500  0.169  0.303-  72 1.00  55 1.00
 285  0.500  0.169  0.456-  73 1.00  56 1.00
 286  0.831  0.000  0.284-  94 0.99  96 1.03
 287  0.831  0.000  0.436-  95 0.99  97 1.03
 288  0.832  0.000  0.227-  69 1.00 236 1.00
 289  0.831  0.000  0.379-  70 1.00 237 1.00
 290  0.829  0.000  0.531-  71 1.00 238 1.00
 291  0.669  0.169  0.284-  98 0.99 100 1.03
 292  0.669  0.169  0.436-  99 0.99 101 1.03
 293  0.668  0.168  0.227-  66 1.00  57 1.00
 294  0.669  0.169  0.379-  67 1.00  58 1.00
 295  0.671  0.171  0.531-  68 1.00  59 1.00
 296  0.500  0.331  0.284- 102 0.99 104 1.03
 297  0.500  0.331  0.436- 103 0.99 105 1.03
 298  0.500  0.332  0.227-  60 1.00  63 1.00
 299  0.500  0.331  0.379-  61 1.00  64 1.00
 300  0.500  0.329  0.531-  62 1.00  65 1.00
 301  0.171  0.500  0.206- 131 0.98 134 1.04
 302  0.169  0.500  0.360- 132 0.99 135 1.03
 303  0.168  0.500  0.512- 133 0.99 136 1.04
 304  0.169  0.500  0.303- 129 1.00 106 1.00
 305  0.169  0.500  0.456- 130 1.00 107 1.00
 306  0.329  0.829  0.206- 137 0.98 140 1.04
 307  0.331  0.831  0.360- 138 0.99 141 1.03
 308  0.332  0.832  0.512- 139 0.99 142 1.04
 309  0.331  0.831  0.303- 108 1.00 127 1.00
 310  0.331  0.831  0.456- 109 1.00 128 1.00
 311  1.000  0.671  0.206- 143 0.98 146 1.04
 312  1.000  0.669  0.360- 144 0.99 147 1.03
 313  1.000  0.668  0.512- 145 0.99 148 1.04
 314  0.000  0.669  0.303- 125 1.00 226 1.00
 315  0.000  0.669  0.456- 126 1.00 227 1.00
 316  0.331  0.500  0.284- 149 0.99 151 1.03
 317  0.331  0.500  0.436- 150 0.99 152 1.03
 318  0.332  0.500  0.227- 110 1.00 122 1.00
 319  0.331  0.500  0.379- 111 1.00 123 1.00
 320  0.329  0.500  0.531- 112 1.00 124 1.00
 321  0.169  0.669  0.284- 153 0.99 155 1.03
 322  0.169  0.669  0.436- 154 0.99 156 1.03
 323  0.168  0.668  0.227- 113 1.00 119 1.00
 324  0.169  0.669  0.379- 114 1.00 120 1.00
 325  0.171  0.671  0.531- 115 1.00 121 1.00
 326  0.000  0.831  0.284- 157 0.99 159 1.03
 327  0.000  0.831  0.436- 158 0.99 160 1.03
 328  0.000  0.832  0.227- 228 1.00 116 1.00
 329  0.000  0.831  0.379- 229 1.00 117 1.00
 330  0.000  0.829  0.531- 230 1.00 118 1.00
 331  0.671  0.500  0.206- 191 0.98 194 1.04
 332  0.669  0.500  0.360- 192 0.99 195 1.03
 333  0.668  0.500  0.512- 193 0.99 196 1.04
 334  0.669  0.500  0.303- 161 1.00 189 1.00
 335  0.669  0.500  0.456- 162 1.00 190 1.00
 336  0.829  0.829  0.206- 197 0.98 200 1.04
 337  0.831  0.831  0.360- 198 0.99 201 1.03
 338  0.832  0.832  0.512- 199 0.99 202 1.04
 339  0.831  0.831  0.303- 163 1.00 187 1.00
 340  0.831  0.831  0.456- 164 1.00 188 1.00
 341  0.500  0.671  0.206- 203 0.98 206 1.04
 342  0.500  0.669  0.360- 204 0.99 207 1.03
 343  0.500  0.668  0.512- 205 0.99 208 1.04
 344  0.500  0.669  0.303- 165 1.00 185 1.00
 345  0.500  0.669  0.456- 166 1.00 186 1.00
 346  0.831  0.500  0.284- 209 0.99 211 1.03
 347  0.831  0.500  0.436- 210 0.99 212 1.03
 348  0.832  0.500  0.227- 167 1.00 182 1.00
 349  0.831  0.500  0.379- 168 1.00 183 1.00
 350  0.829  0.500  0.531- 169 1.00 184 1.00
 351  0.669  0.669  0.284- 213 0.99 215 1.03
 352  0.669  0.669  0.436- 214 0.99 216 1.03
 353  0.668  0.668  0.227- 170 1.00 179 1.00
 354  0.669  0.669  0.379- 171 1.00 180 1.00
 355  0.671  0.671  0.531- 172 1.00 181 1.00
 356  0.500  0.831  0.284- 217 0.99 219 1.03
 357  0.500  0.831  0.436- 218 0.99 220 1.03
 358  0.500  0.832  0.227- 176 1.00 173 1.00
 359  0.500  0.831  0.379- 177 1.00 174 1.00
 360  0.500  0.829  0.531- 178 1.00 175 1.00
 
  LATTYP: Found a hexagonal cell.
 ALAT       =    14.6976995468
 C/A-ratio  =     3.3474899354
  
  Lattice vectors:
  
 A1 = (  14.6976995468,   0.0000000000,   0.0000000000)
 A2 = (  -7.3488497734,  12.7285811847,   0.0000000000)
 A3 = (   0.0000000000,   0.0000000000,  49.2004013062)


Analysis of symmetry for initial positions (statically):
=====================================================================
 Subroutine PRICEL returns following result:
 
  LATTYP: Found a hexagonal cell.
 ALAT       =     7.3488496637
 C/A-ratio  =     6.6949799707
  
  Lattice vectors:
  
 A1 = (   7.3488497729,   0.0000000000,   0.0000000000)
 A2 = (  -3.6744247772,   6.3642904027,   0.0000000000)
 A3 = (   0.0000000000,   0.0000000000,  49.2004013062)
 
   4 primitive cells build up your supercell.
 

 Routine SETGRP: Setting up the symmetry group for a 
 hexagonal supercell.


 Subroutine GETGRP returns: Found  6 space group operations
 (whereof  6 operations were pure point group operations)
 out of a pool of 24 trial point group operations.


The static configuration has the point symmetry C_3v.


Analysis of symmetry for dynamics (positions and initial velocities):
=====================================================================
 Subroutine PRICEL returns following result:
 
  LATTYP: Found a hexagonal cell.
 ALAT       =     7.3488496637
 C/A-ratio  =     6.6949799707
  
  Lattice vectors:
  
 A1 = (   7.3488497729,   0.0000000000,   0.0000000000)
 A2 = (  -3.6744247772,   6.3642904027,   0.0000000000)
 A3 = (   0.0000000000,   0.0000000000,  49.2004013062)
 
   4 primitive cells build up your supercell.
 

 Routine SETGRP: Setting up the symmetry group for a 
 hexagonal supercell.


 Subroutine GETGRP returns: Found  6 space group operations
 (whereof  6 operations were pure point group operations)
 out of a pool of 24 trial point group operations.


The dynamic configuration has the point symmetry C_3v.


 Subroutine INISYM returns: Found  6 space group operations
 (whereof  6 operations are pure point group operations),
 and found     4 'primitive' translations

 
 
 KPOINTS: automatic mesh                          

Automatic generation of k-mesh.
Space group operators:
 irot       det(A)        alpha          n_x          n_y          n_z        tau_x        tau_y        tau_z
    1     1.000000     0.000000     1.000000     0.000000     0.000000     0.000000     0.000000     0.000000
    2     1.000000   120.000000     0.000000     0.000000    -1.000000     0.000000     0.000000     0.000000
    3     1.000000   120.000000     0.000000     0.000000     1.000000     0.000000     0.000000     0.000000
    4    -1.000000   180.000000     0.866025    -0.500000     0.000000     0.000000     0.000000     0.000000
    5    -1.000000   180.000000     0.000000     1.000000     0.000000     0.000000     0.000000     0.000000
    6    -1.000000   180.000000     0.866025     0.500000     0.000000     0.000000     0.000000     0.000000
 
 Subroutine IBZKPT returns following result:
 ===========================================
 
 Found      1 irreducible k-points:
 
 Following reciprocal coordinates:
            Coordinates               Weight
  0.000000  0.000000  0.000000      1.000000
 
 Following cartesian coordinates:
            Coordinates               Weight
  0.000000  0.000000  0.000000      1.000000
 


--------------------------------------------------------------------------------------------------------




 Dimension of arrays:
   k-points           NKPTS =      1   k-points in BZ     NKDIM =      1   number of bands    NBANDS=    662
   number of dos      NEDOS =    301   number of ions     NIONS =    360
   non local maximal  LDIM  =      4   non local SUM 2l+1 LMDIM =      8
   total plane-waves  NPLWV = ******
   max r-space proj   IRMAX =   1601   max aug-charges    IRDMAX=   2026
   dimension x,y,z NGX =    72 NGY =   72 NGZ =  250
   dimension x,y,z NGXF=   144 NGYF=  144 NGZF=  500
   support grid    NGXF=   144 NGYF=  144 NGZF=  500
   ions per type =             240 120
   NGX,Y,Z   is equivalent  to a cutoff of   8.14,  8.14,  8.45 a.u.
   NGXF,Y,Z  is equivalent  to a cutoff of  16.29, 16.29, 16.89 a.u.

 SYSTEM =  ice                                     
 POSCAR =  bilayer_5                               

 Startparameter for this run:
   NWRITE =      0    write-flag & timer
   PREC   = normal    normal or accurate (medium, high low for compatibility)
   ISTART =      0    job   : 0-new  1-cont  2-samecut
   ICHARG =      1    charge: 1-file 2-atom 10-const
   ISPIN  =      1    spin polarized calculation?
   LNONCOLLINEAR =      F non collinear calculations
   LSORBIT =      F    spin-orbit coupling
   INIWAV =      1    electr: 0-lowe 1-rand  2-diag
   LASPH  =      F    aspherical Exc in radial PAW
   METAGGA=      F    non-selfconsistent MetaGGA calc.

 Electronic Relaxation 1
   ENCUT  =  400.0 eV  29.40 Ry    5.42 a.u.  23.97 23.97 80.23*2*pi/ulx,y,z
   ENINI  =  400.0     initial cutoff
   ENAUG  =  605.4 eV  augmentation charge cutoff
   NELM   =    500;   NELMIN=  4; NELMDL=  0     # of ELM steps 
   EDIFF  = 0.1E-05   stopping-criterion for ELM
   LREAL  =      T    real-space projection
   NLSPLINE    = F    spline interpolate recip. space projectors
   LCOMPAT=      F    compatible to vasp.4.4
   GGA_COMPAT  = T    GGA compatible to vasp.4.4-vasp.4.6
   LMAXPAW     = -100 max onsite density
   LMAXMIX     =    2 max onsite mixed and CHGCAR
   VOSKOWN=      0    Vosko Wilk Nusair interpolation
   ROPT   =   -0.00050  -0.00050
 Ionic relaxation
   EDIFFG = 0.1E-04   stopping-criterion for IOM
   NSW    =      0    number of steps for IOM
   NBLOCK =      1;   KBLOCK =      1    inner block; outer block 
   IBRION =     -1    ionic relax: 0-MD 1-quasi-New 2-CG
   NFREE  =      0    steps in history (QN), initial steepest desc. (CG)
   ISIF   =      2    stress and relaxation
   IWAVPR =     10    prediction:  0-non 1-charg 2-wave 3-comb
   ISYM   =      2    0-nonsym 1-usesym 2-fastsym
   LCORR  =      T    Harris-Foulkes like correction to forces

   POTIM  = 0.5000    time-step for ionic-motion
   TEIN   =    0.0    initial temperature
   TEBEG  =    0.0;   TEEND  =   0.0 temperature during run
   SMASS  =  -3.00    Nose mass-parameter (am)
   estimated Nose-frequenzy (Omega)   =  0.10E-29 period in steps =****** mass=  -0.494E-26a.u.
   SCALEE = 1.0000    scale energy and forces
   NPACO  =    256;   APACO  = 16.0  distance and # of slots for P.C.
   PSTRESS=    0.0 pullay stress

  Mass of Ions in am
   POMASS =   1.00 16.00
  Ionic Valenz
   ZVAL   =   1.00  6.00
  Atomic Wigner-Seitz radii
   RWIGS  =  -1.00 -1.00
  virtual crystal weights 
   VCA    =   1.00  1.00
   NELECT =     960.0000    total number of electrons
   NUPDOWN=      -1.0000    fix difference up-down

 DOS related values:
   EMIN   =  10.00;   EMAX   =-10.00  energy-range for DOS
   EFERMI =   0.00
   ISMEAR =    -1;   SIGMA  =   0.05  broadening in eV -4-tet -1-fermi 0-gaus

 Electronic relaxation 2 (details)
   IALGO  =     68    algorithm
   LDIAG  =      T    sub-space diagonalisation (order eigenvalues)
   LSUBROT=      F    optimize rotation matrix (better conditioning)
   TURBO    =      0    0=normal 1=particle mesh
   IRESTART =      0    0=no restart 2=restart with 2 vectors
   NREBOOT  =      0    no. of reboots
   NMIN     =      0    reboot dimension
   EREF     =   0.00    reference energy to select bands
   IMIX   =      4    mixing-type and parameters
     AMIX     =   0.40;   BMIX     =  1.00
     AMIX_MAG =   1.60;   BMIX_MAG =  1.00
     AMIN     =   0.10
     WC   =   100.;   INIMIX=   1;  MIXPRE=   1;  MAXMIX=  40

 Intra band minimization:
   WEIMIN = 0.0000     energy-eigenvalue tresh-hold
   EBREAK =  0.38E-09  absolut break condition
   DEPER  =   0.30     relativ break condition  

   TIME   =   0.40     timestep for ELM

  volume/ion in A,a.u.               =      25.57       172.54
  Fermi-wavevector in a.u.,A,eV,Ry     =   0.770606  1.456235  8.079604  0.593834
  Thomas-Fermi vector in A             =   1.871846
 
 Write flags
   LWAVE        =      F    write WAVECAR
   LDOWNSAMPLE  =      F    k-point downsampling of WAVECAR
   LCHARG       =      T    write CHGCAR
   LVTOT        =      F    write LOCPOT, total local potential
   LVHAR        =      T    write LOCPOT, Hartree potential only
   LELF         =      F    write electronic localiz. function (ELF)
   LORBIT       =     11    0 simple, 1 ext, 2 COOP (PROOUT), +10 PAW based schemes


 Dipole corrections
   LMONO  =      F    monopole corrections only (constant potential shift)
   LDIPOL =      T    correct potential (dipole corrections)
   IDIPOL =      3    1-x, 2-y, 3-z, 4-all directions 
   EPSILON=  1.0000000 bulk dielectric constant

 Exchange correlation treatment:
   GGA     =    --    GGA type
   LEXCH   =     8    internal setting for exchange type
   VOSKOWN=      0    Vosko Wilk Nusair interpolation
   LHFCALC =     F    Hartree Fock is set to
   LHFONE  =     F    Hartree Fock one center treatment
   AEXX    =    0.0000 exact exchange contribution

 Linear response parameters
   LEPSILON=     F    determine dielectric tensor
   LRPA    =     F    only Hartree local field effects (RPA)
   LNABLA  =     F    use nabla operator in PAW spheres
   LVEL    =     F    velocity operator in full k-point grid
   LINTERFAST=   F  fast interpolation
   KINTER  =     0    interpolate to denser k-point grid
   CSHIFT  =0.1000    complex shift for real part using Kramers Kronig
   OMEGAMAX=  -1.0    maximum frequency
   DEG_THRESHOLD= 0.2000000E-02 threshold for treating states as degnerate
   RTIME   =   -0.100 relaxation time in fs
  (WPLASMAI=    0.000 imaginary part of plasma frequency in eV, 0.658/RTIME)
   DFIELD  = 0.0000000 0.0000000 0.0000000 field for delta impulse in time
 
 Orbital magnetization related:
   ORBITALMAG=     F  switch on orbital magnetization
   LCHIMAG   =     F  perturbation theory with respect to B field
   DQ        =  0.001000  dq finite difference perturbation B field
   LLRAUG    =     F  two centre corrections for induced B field



--------------------------------------------------------------------------------------------------------


 Static calculation
 charge density and potential will be updated during run
 non-spin polarized calculation
 RMM-DIIS sequential band-by-band and
  variant of blocked Davidson during initial phase
 perform sub-space diagonalisation
    before iterative eigenvector-optimisation
 modified Broyden-mixing scheme, WC =      100.0
 initial mixing is a Kerker type mixing with AMIX =  0.4000 and BMIX =      1.0000
 Hartree-type preconditioning will be used
 using additional bands          182
 real space projection scheme for non local part
 use partial core corrections
 calculate Harris-corrections to forces 
   (improved forces if not selfconsistent)
 use gradient corrections 
 use of overlap-Matrix (Vanderbilt PP)
 Fermi-smearing in eV        SIGMA  =   0.05


--------------------------------------------------------------------------------------------------------


  energy-cutoff  :      400.00
  volume of cell :     9204.45
      direct lattice vectors                 reciprocal lattice vectors
    14.697699547  0.000000000  0.000000000     0.068037858  0.039281676  0.000000000
    -7.348849773 12.728581185  0.000000000     0.000000000  0.078563352  0.000000000
     0.000000000  0.000000000 49.200401306     0.000000000  0.000000000  0.020325037

  length of vectors
    14.697699547 14.697699547 49.200401306     0.078563352  0.078563352  0.020325037


 
 k-points in units of 2pi/SCALE and weight: automatic mesh                          
   0.00000000  0.00000000  0.00000000       1.000
 
 k-points in reciprocal lattice and weights: automatic mesh                          
   0.00000000  0.00000000  0.00000000       1.000
 
 position of ions in fractional coordinates (direct lattice) 
   0.16723122  0.06323179  0.29612743
   0.16709613  0.06324891  0.44859795
   0.39600057  0.33276879  0.29612743
   0.39615278  0.33290388  0.44859795
   0.10423343  0.16722031  0.21924156
   0.10391406  0.16716618  0.37234561
   0.10374334  0.16712765  0.52534066
   0.06298688  0.39576658  0.21924156
   0.06325212  0.39608595  0.37234561
   0.06338431  0.39625667  0.52534066
   0.16722030  0.10423343  0.21924156
   0.16716616  0.10391406  0.37234561
   0.16712763  0.10374334  0.52534066
   0.39576655  0.06298688  0.21924156
   0.39608592  0.06325212  0.37234561
   0.39625664  0.06338431  0.52534066
   0.06323180  0.16723124  0.29612743
   0.06324892  0.16709615  0.44859795
   0.33276879  0.39600057  0.29612743
   0.33290388  0.39615278  0.44859795
   0.17579086  0.00000000  0.18640903
   0.17160272  0.00000000  0.33967348
   0.17135573  0.00000000  0.49217928
   0.23661819  0.00000000  0.21380940
   0.23422038  0.00000000  0.36702783
   0.23424226  0.00000000  0.51973174
   0.32420913  0.32420913  0.18640903
   0.32839726  0.32839726  0.33967348
   0.32864426  0.32864426  0.49217928
   0.26338183  0.26338183  0.21380940
   0.26577964  0.26577964  0.36702783
   0.26575775  0.26575775  0.51973174
   1.00000000  0.17579086  0.18640903
   1.00000000  0.17160272  0.33967348
   1.00000000  0.17135573  0.49217928
   1.00000000  0.23661819  0.21380940
   1.00000000  0.23422038  0.36702783
   1.00000000  0.23424226  0.51973174
   0.32875192  0.00000000  0.26346615
   0.32829756  0.00000000  0.41587732
   0.26576810  0.00000000  0.29075776
   0.26573788  0.00000000  0.44324768
   0.17124805  0.17124807  0.26346615
   0.17170241  0.17170243  0.41587732
   0.23423190  0.23423190  0.29075776
   0.23426212  0.23426212  0.44324768
   1.00000000  0.32875192  0.26346615
   1.00000000  0.32829756  0.41587732
   0.00000000  0.26576810  0.29075776
   0.00000000  0.26573788  0.44324768
   0.66723121  0.06323179  0.29612743
   0.66709612  0.06324891  0.44859795
   0.89600057  0.33276879  0.29612743
   0.89615278  0.33290388  0.44859795
   0.43676822  0.10399944  0.29612743
   0.43675110  0.10384723  0.44859795
   0.60423337  0.16722031  0.21924156
   0.60391399  0.16716618  0.37234561
   0.60374327  0.16712765  0.52534066
   0.56298683  0.39576658  0.21924156
   0.56325207  0.39608595  0.37234561
   0.56338426  0.39625667  0.52534066
   0.43701314  0.33277972  0.21924156
   0.43674790  0.33283385  0.37234561
   0.43661571  0.33287238  0.52534066
   0.66722031  0.10423343  0.21924156
   0.66716618  0.10391406  0.37234561
   0.66712765  0.10374334  0.52534066
   0.89576658  0.06298688  0.21924156
   0.89608595  0.06325212  0.37234561
   0.89625667  0.06338431  0.52534066
   0.56323178  0.16723124  0.29612743
   0.56324890  0.16709615  0.44859795
   0.83276873  0.39600057  0.29612743
   0.83290382  0.39615278  0.44859795
   0.67579084  0.00000000  0.18640903
   0.67160271  0.00000000  0.33967348
   0.67135571  0.00000000  0.49217928
   0.73661823  0.00000000  0.21380940
   0.73422042  0.00000000  0.36702783
   0.73424231  0.00000000  0.51973174
   0.82420910  0.32420913  0.18640903
   0.82839723  0.32839726  0.33967348
   0.82864423  0.32864426  0.49217928
   0.76338183  0.26338183  0.21380940
   0.76577964  0.26577964  0.36702783
   0.76575775  0.26575775  0.51973174
   0.50000000  0.17579086  0.18640903
   0.50000000  0.17160272  0.33967348
   0.50000000  0.17135573  0.49217928
   0.50000000  0.23661819  0.21380940
   0.50000000  0.23422038  0.36702783
   0.50000000  0.23424226  0.51973174
   0.82875192  0.00000000  0.26346615
   0.82829756  0.00000000  0.41587732
   0.76576810  0.00000000  0.29075776
   0.76573788  0.00000000  0.44324768
   0.67124802  0.17124807  0.26346615
   0.67170238  0.17170243  0.41587732
   0.73423190  0.23423190  0.29075776
   0.73426212  0.23426212  0.44324768
   0.50000000  0.32875192  0.26346615
   0.50000000  0.32829756  0.41587732
   0.50000000  0.26576810  0.29075776
   0.50000000  0.26573788  0.44324768
   0.16723124  0.56323184  0.29612743
   0.16709615  0.56324896  0.44859795
   0.39600060  0.83276879  0.29612743
   0.39615281  0.83290388  0.44859795
   0.33277969  0.43701311  0.21924156
   0.33283382  0.43674787  0.37234561
   0.33287235  0.43661568  0.52534066
   0.10423345  0.66722031  0.21924156
   0.10391407  0.66716618  0.37234561
   0.10374336  0.66712765  0.52534066
   0.06298690  0.89576663  0.21924156
   0.06325214  0.89608601  0.37234561
   0.06338432  0.89625673  0.52534066
   0.16722033  0.60423342  0.21924156
   0.16716619  0.60391405  0.37234561
   0.16712766  0.60374333  0.52534066
   0.39576661  0.56298689  0.21924156
   0.39608598  0.56325213  0.37234561
   0.39625670  0.56338432  0.52534066
   0.06323181  0.66723127  0.29612743
   0.06324893  0.66709618  0.44859795
   0.33276879  0.89600063  0.29612743
   0.33290388  0.89615284  0.44859795
   0.10399942  0.43676819  0.29612743
   0.10384721  0.43675107  0.44859795
   0.17579086  0.50000000  0.18640903
   0.17160272  0.50000000  0.33967348
   0.17135573  0.50000000  0.49217928
   0.23661819  0.50000000  0.21380940
   0.23422038  0.50000000  0.36702783
   0.23424226  0.50000000  0.51973174
   0.32420916  0.82420916  0.18640903
   0.32839729  0.82839729  0.33967348
   0.32864429  0.82864429  0.49217928
   0.26338183  0.76338183  0.21380940
   0.26577964  0.76577964  0.36702783
   0.26575775  0.76575775  0.51973174
   1.00000000  0.67579090  0.18640903
   1.00000000  0.67160277  0.33967348
   1.00000000  0.67135577  0.49217928
   1.00000000  0.73661823  0.21380940
   1.00000000  0.73422042  0.36702783
   1.00000000  0.73424231  0.51973174
   0.32875195  0.50000000  0.26346615
   0.32829759  0.50000000  0.41587732
   0.26576813  0.50000000  0.29075776
   0.26573791  0.50000000  0.44324768
   0.17124808  0.67124808  0.26346615
   0.17170244  0.67170244  0.41587732
   0.23423190  0.73423196  0.29075776
   0.23426212  0.73426218  0.44324768
   0.00000000  0.82875198  0.26346615
   0.00000000  0.82829762  0.41587732
   1.00000000  0.76576810  0.29075776
   1.00000000  0.76573788  0.44324768
   0.66723127  0.56323184  0.29612743
   0.66709618  0.56324896  0.44859795
   0.89600057  0.83276879  0.29612743
   0.89615278  0.83290388  0.44859795
   0.43676825  0.60399943  0.29612743
   0.43675113  0.60384722  0.44859795
   0.83277969  0.43701311  0.21924156
   0.83283382  0.43674787  0.37234561
   0.83287235  0.43661568  0.52534066
   0.60423342  0.66722031  0.21924156
   0.60391405  0.66716618  0.37234561
   0.60374333  0.66712765  0.52534066
   0.56298689  0.89576663  0.21924156
   0.56325213  0.89608601  0.37234561
   0.56338432  0.89625673  0.52534066
   0.43701317  0.83277975  0.21924156
   0.43674793  0.83283388  0.37234561
   0.43661574  0.83287241  0.52534066
   0.66722031  0.60423342  0.21924156
   0.66716618  0.60391405  0.37234561
   0.66712765  0.60374333  0.52534066
   0.89576663  0.56298689  0.21924156
   0.89608601  0.56325213  0.37234561
   0.89625673  0.56338432  0.52534066
   0.56323184  0.66723127  0.29612743
   0.56324896  0.66709618  0.44859795
   0.83276879  0.89600063  0.29612743
   0.83290388  0.89615284  0.44859795
   0.60399937  0.43676819  0.29612743
   0.60384716  0.43675107  0.44859795
   0.67579084  0.50000000  0.18640903
   0.67160271  0.50000000  0.33967348
   0.67135571  0.50000000  0.49217928
   0.73661823  0.50000000  0.21380940
   0.73422042  0.50000000  0.36702783
   0.73424231  0.50000000  0.51973174
   0.82420916  0.82420916  0.18640903
   0.82839729  0.82839729  0.33967348
   0.82864429  0.82864429  0.49217928
   0.76338183  0.76338183  0.21380940
   0.76577964  0.76577964  0.36702783
   0.76575775  0.76575775  0.51973174
   0.50000000  0.67579090  0.18640903
   0.50000000  0.67160277  0.33967348
   0.50000000  0.67135577  0.49217928
   0.50000000  0.73661823  0.21380940
   0.50000000  0.73422042  0.36702783
   0.50000000  0.73424231  0.51973174
   0.82875192  0.50000000  0.26346615
   0.82829756  0.50000000  0.41587732
   0.76576810  0.50000000  0.29075776
   0.76573788  0.50000000  0.44324768
   0.67124808  0.67124808  0.26346615
   0.67170244  0.67170244  0.41587732
   0.73423196  0.73423196  0.29075776
   0.73426218  0.73426218  0.44324768
   0.50000000  0.82875198  0.26346615
   0.50000000  0.82829762  0.41587732
   0.50000000  0.76576810  0.29075776
   0.50000000  0.76573788  0.44324768
   0.93676816  0.10399944  0.29612743
   0.93675104  0.10384723  0.44859795
   0.93701311  0.33277972  0.21924156
   0.93674787  0.33283385  0.37234561
   0.93661568  0.33287238  0.52534066
   0.93676822  0.60399943  0.29612743
   0.93675110  0.60384722  0.44859795
   0.93701311  0.83277975  0.21924156
   0.93674787  0.83283388  0.37234561
   0.93661568  0.83287241  0.52534066
   0.33277972  0.93701311  0.21924156
   0.33283385  0.93674787  0.37234561
   0.33287238  0.93661568  0.52534066
   0.10399944  0.93676822  0.29612743
   0.10384723  0.93675110  0.44859795
   0.83277969  0.93701311  0.21924156
   0.83283382  0.93674787  0.37234561
   0.83287235  0.93661568  0.52534066
   0.60399943  0.93676822  0.29612743
   0.60384722  0.93675110  0.44859795
   0.17082804  0.00000000  0.20623551
   0.16858623  0.00000000  0.35974706
   0.16838933  0.00000000  0.51226703
   0.16926115  0.00000000  0.30309334
   0.16905373  0.00000000  0.45557932
   0.32917195  0.32917195  0.20623551
   0.33141375  0.33141375  0.35974706
   0.33161066  0.33161066  0.51226703
   0.33073883  0.33073883  0.30309334
   0.33094626  0.33094626  0.45557932
   0.00000000  0.17082804  0.20623551
   0.00000000  0.16858623  0.35974706
   0.00000000  0.16838933  0.51226703
   0.00000000  0.16926115  0.30309334
   0.00000000  0.16905373  0.45557932
   0.33148617  0.00000000  0.28352482
   0.33132843  0.00000000  0.43594888
   0.33156242  0.00000000  0.22662492
   0.33083807  0.00000000  0.37931182
   0.32931725  0.00000000  0.53142830
   0.16851385  0.16851385  0.28352482
   0.16867159  0.16867159  0.43594888
   0.16843755  0.16843755  0.22662492
   0.16916190  0.16916190  0.37931182
   0.17068272  0.17068272  0.53142830
   1.00000000  0.33148614  0.28352482
   1.00000000  0.33132840  0.43594888
   1.00000000  0.33156245  0.22662492
   1.00000000  0.33083810  0.37931182
   1.00000000  0.32931728  0.53142830
   0.67082805  0.00000000  0.20623551
   0.66858625  0.00000000  0.35974706
   0.66838934  0.00000000  0.51226703
   0.66926120  0.00000000  0.30309334
   0.66905377  0.00000000  0.45557932
   0.82917195  0.32917195  0.20623551
   0.83141375  0.33141375  0.35974706
   0.83161066  0.33161066  0.51226703
   0.83073880  0.33073883  0.30309334
   0.83094623  0.33094626  0.45557932
   0.50000000  0.17082804  0.20623551
   0.50000000  0.16858623  0.35974706
   0.50000000  0.16838933  0.51226703
   0.50000000  0.16926115  0.30309334
   0.50000000  0.16905373  0.45557932
   0.83148611  0.00000000  0.28352482
   0.83132837  0.00000000  0.43594888
   0.83156242  0.00000000  0.22662492
   0.83083807  0.00000000  0.37931182
   0.82931725  0.00000000  0.53142830
   0.66851383  0.16851385  0.28352482
   0.66867157  0.16867159  0.43594888
   0.66843758  0.16843755  0.22662492
   0.66916193  0.16916190  0.37931182
   0.67068275  0.17068272  0.53142830
   0.50000000  0.33148614  0.28352482
   0.50000000  0.33132840  0.43594888
   0.50000000  0.33156245  0.22662492
   0.50000000  0.33083810  0.37931182
   0.50000000  0.32931728  0.53142830
   0.17082804  0.50000000  0.20623551
   0.16858623  0.50000000  0.35974706
   0.16838933  0.50000000  0.51226703
   0.16926115  0.50000000  0.30309334
   0.16905373  0.50000000  0.45557932
   0.32917201  0.82917201  0.20623551
   0.33141381  0.83141381  0.35974706
   0.33161072  0.83161072  0.51226703
   0.33073883  0.83073880  0.30309334
   0.33094626  0.83094623  0.45557932
   1.00000000  0.67082805  0.20623551
   1.00000000  0.66858625  0.35974706
   1.00000000  0.66838934  0.51226703
   0.00000000  0.66926120  0.30309334
   0.00000000  0.66905377  0.45557932
   0.33148617  0.50000000  0.28352482
   0.33132843  0.50000000  0.43594888
   0.33156245  0.50000000  0.22662492
   0.33083810  0.50000000  0.37931182
   0.32931728  0.50000000  0.53142830
   0.16851386  0.66851389  0.28352482
   0.16867160  0.66867163  0.43594888
   0.16843753  0.66843758  0.22662492
   0.16916189  0.66916193  0.37931182
   0.17068271  0.67068275  0.53142830
   0.00000000  0.83148617  0.28352482
   0.00000000  0.83132843  0.43594888
   0.00000000  0.83156242  0.22662492
   0.00000000  0.83083807  0.37931182
   0.00000000  0.82931725  0.53142830
   0.67082799  0.50000000  0.20623551
   0.66858619  0.50000000  0.35974706
   0.66838928  0.50000000  0.51226703
   0.66926120  0.50000000  0.30309334
   0.66905377  0.50000000  0.45557932
   0.82917195  0.82917201  0.20623551
   0.83141375  0.83141381  0.35974706
   0.83161066  0.83161072  0.51226703
   0.83073880  0.83073880  0.30309334
   0.83094623  0.83094623  0.45557932
   0.50000000  0.67082805  0.20623551
   0.50000000  0.66858625  0.35974706
   0.50000000  0.66838934  0.51226703
   0.50000000  0.66926120  0.30309334
   0.50000000  0.66905377  0.45557932
   0.83148611  0.50000000  0.28352482
   0.83132837  0.50000000  0.43594888
   0.83156242  0.50000000  0.22662492
   0.83083807  0.50000000  0.37931182
   0.82931725  0.50000000  0.53142830
   0.66851383  0.66851389  0.28352482
   0.66867157  0.66867163  0.43594888
   0.66843758  0.66843758  0.22662492
   0.66916193  0.66916193  0.37931182
   0.67068275  0.67068275  0.53142830
   0.50000006  0.83148617  0.28352482
   0.50000006  0.83132843  0.43594888
   0.50000000  0.83156242  0.22662492
   0.50000000  0.83083807  0.37931182
   0.50000000  0.82931725  0.53142830
 
 position of ions in cartesian coordinates  (Angst):
   1.99323331  0.80485100 14.56958848
   1.99112198  0.80506892 22.07119911
   3.37482953  4.23567460 14.56958848
   3.37607392  4.23739411 22.07119911
   0.30311471  2.12847733 10.78677254
   0.29881844  2.12778827 18.31955324
   0.29659246  2.12729785 25.84697134
  -1.98266686  5.03754698 10.78677254
  -1.98111547  5.04161219 18.31955324
  -1.98042719  5.04378516 25.84697134
   1.69175786  1.32674370 10.78677254
   1.69330925  1.32267849 18.31955324
   1.69399753  1.32050553 25.84697134
   5.35397665  0.80173363 10.78677254
   5.35672153  0.80510977 18.31955324
   5.35825924  0.80679232 25.84697134
  -0.29959524  2.12861637 14.56958848
  -0.29835086  2.12689687 22.07119911
   1.98078704  5.04052541 14.56958848
   1.98165398  5.04246283 22.07119911
   2.58372120  0.00000000  9.17139925
   2.52216527  0.00000000 16.71207153
   2.51853503  0.00000000 24.21541818
   3.47774305  0.00000000 10.51950830
   3.44250070  0.00000000 18.05791652
   3.44282242  0.00000000 25.57101024
   2.38256418  4.12672221  9.17139925
   2.41334214  4.18003121 16.71207153
   2.41515726  4.18317509 24.21541818
   1.93555347  3.35247695 10.51950830
   1.95317465  3.38299772 18.05791652
   1.95301379  3.38271911 25.57101024
  13.40583895  2.23756819  9.17139925
  13.43661691  2.18425919 16.71207153
  13.43843203  2.18111531 24.21541818
  12.95882802  3.01181383 10.51950830
  12.97644920  2.98129306 18.05791652
  12.97628834  2.98157167 25.57101024
   4.83189690  0.00000000 12.96264046
   4.82521888  0.00000000 20.46133119
   3.90617969  0.00000000 14.30539850
   3.90573549  0.00000000 21.80796354
   1.25847611  2.17974494 12.96264046
   1.26181512  2.18552828 20.46133119
   1.72133504  2.98143975 14.30539850
   1.72155714  2.98182443 21.80796354
  12.28175110  4.18454546 12.96264046
  12.28509011  4.17876213 20.46133119
  -1.95308984  3.38285084 14.30539850
  -1.95286775  3.38246616 21.80796354
   9.34208286  0.80485100 14.56958848
   9.33997154  0.80506892 22.07119911
  10.72367931  4.23567460 14.56958848
  10.72492369  4.23739411 22.07119911
   5.65521187  1.32376528 14.56958848
   5.65607881  1.32182785 22.07119911
   7.65196350  2.12847733 10.78677254
   7.64766723  2.12778827 18.31955324
   7.64544124  2.12729785 25.84697134
   5.36618215  5.03754698 10.78677254
   5.36773354  5.04161219 18.31955324
   5.36842182  5.04378516 25.84697134
   3.97753971  4.23581364 10.78677254
   3.97324344  4.23650270 18.31955324
   3.97101745  4.23699312 25.84697134
   9.04060786  1.32674370 10.78677254
   9.04215925  1.32267849 18.31955324
   9.04284753  1.32050553 25.84697134
  12.70282686  0.80173363 10.78677254
  12.70557174  0.80510977 18.31955324
  12.70710945  0.80679232 25.84697134
   7.04925420  2.12861637 14.56958848
   7.05049859  2.12689687 22.07119911
   9.32963594  5.04052541 14.56958848
   9.33050288  5.04246283 22.07119911
   9.93257075  0.00000000  9.17139925
   9.87101482  0.00000000 16.71207153
   9.86738458  0.00000000 24.21541818
  10.82659348  0.00000000 10.51950830
  10.79135113  0.00000000 18.05791652
  10.79167285  0.00000000 25.57101024
   9.73141351  4.12672221  9.17139925
   9.76219148  4.18003121 16.71207153
   9.76400660  4.18317509 24.21541818
   9.28440324  3.35247695 10.51950830
   9.30202442  3.38299772 18.05791652
   9.30186356  3.38271911 25.57101024
   6.05698917  2.23756819  9.17139925
   6.08776714  2.18425919 16.71207153
   6.08958226  2.18111531 24.21541818
   5.60997825  3.01181383 10.51950830
   5.62759942  2.98129306 18.05791652
   5.62743856  2.98157167 25.57101024
  12.18074667  0.00000000 12.96264046
  12.17406865  0.00000000 20.46133119
  11.25502946  0.00000000 14.30539850
  11.25458527  0.00000000 21.80796354
   8.60732544  2.17974494 12.96264046
   8.61066446  2.18552828 20.46133119
   9.07018482  2.98143975 14.30539850
   9.07040691  2.98182443 21.80796354
   4.93290132  4.18454546 12.96264046
   4.93624034  4.17876213 20.46133119
   5.39575993  3.38285084 14.30539850
   5.39598203  3.38246616 21.80796354
  -1.68119169  7.16914216 14.56958848
  -1.68330301  7.16936008 22.07119911
  -0.29959492 10.59996520 14.56958848
  -0.29835053 10.60168470 22.07119911
   1.67955215  5.56255687 10.78677254
   1.68229703  5.55918072 18.31955324
   1.68383473  5.55749817 25.84697134
  -3.37130996  8.49276792 10.78677254
  -3.37560623  8.49207886 18.31955324
  -3.37783221  8.49158844 25.84697134
  -5.65709196 11.40183834 10.78677254
  -5.65554057 11.40590355 18.31955324
  -5.65485230 11.40807651 25.84697134
  -1.98266653  7.69103420 10.78677254
  -1.98111514  7.68696899 18.31955324
  -1.98042686  7.68479602 25.84697134
   1.67955259  7.16602431 10.78677254
   1.68229747  7.16940046 18.31955324
   1.68383517  7.17108301 25.84697134
  -3.97402024  8.49290734 14.56958848
  -3.97277585  8.49118784 22.07119911
  -1.69363828 11.40481676 14.56958848
  -1.69277134 11.40675418 22.07119911
  -1.68119158  5.55943941 14.56958848
  -1.68330291  5.55922149 22.07119911
  -1.09070369  6.36429059  9.17139925
  -1.15225962  6.36429059 16.71207153
  -1.15588986  6.36429059 24.21541818
  -0.19668183  6.36429059 10.51950830
  -0.23192419  6.36429059 18.05791652
  -0.23160247  6.36429059 25.57101024
  -1.29186049 10.49101318  9.17139925
  -1.26108252 10.54432218 16.71207153
  -1.25926740 10.54746606 24.21541818
  -1.73887142  9.71676754 10.51950830
  -1.72125024  9.74728831 18.05791652
  -1.72141110  9.74700970 25.57101024
   9.73141373  8.60185936  9.17139925
   9.76219170  8.54855036 16.71207153
   9.76400682  8.54540648 24.21541818
   9.28440280  9.37610499 10.51950830
   9.30202398  9.34558422 18.05791652
   9.30186312  9.34586284 25.57101024
   1.15747245  6.36429059 12.96264046
   1.15079443  6.36429059 20.46133119
   0.23175524  6.36429059 14.30539850
   0.23131105  6.36429059 21.80796354
  -2.41594845  8.54403572 12.96264046
  -2.41260944  8.54981906 20.46133119
  -1.95309028  9.34573110 14.30539850
  -1.95286819  9.34611579 21.80796354
  -6.09037377 10.54883681 12.96264046
  -6.08703476 10.54305348 20.46133119
   9.07018482  9.74714143 14.30539850
   9.07040691  9.74675675 21.80796354
   5.66765852  7.16914216 14.56958848
   5.66554720  7.16936008 22.07119911
   7.04925442 10.59996520 14.56958848
   7.05049881 10.60168470 22.07119911
   1.98078748  7.68805577 14.56958848
   1.98165442  7.68611835 22.07119911
   9.02840192  5.56255687 10.78677254
   9.03114680  5.55918072 18.31955324
   9.03268451  5.55749817 25.84697134
   3.97753949  8.49276792 10.78677254
   3.97324322  8.49207886 18.31955324
   3.97101723  8.49158844 25.84697134
   1.69175770 11.40183834 10.78677254
   1.69330909 11.40590355 18.31955324
   1.69399737 11.40807651 25.84697134
   0.30311504 10.60010461 10.78677254
   0.29881877 10.60079368 18.31955324
   0.29659278 10.60128409 25.84697134
   5.36618303  7.69103420 10.78677254
   5.36773442  7.68696899 18.31955324
   5.36842269  7.68479602 25.84697134
   9.02840280  7.16602431 10.78677254
   9.03114768  7.16940046 18.31955324
   9.03268538  7.17108301 25.84697134
   3.37482997  8.49290734 14.56958848
   3.37607436  8.49118784 22.07119911
   5.65521149 11.40481676 14.56958848
   5.65607843 11.40675418 22.07119911
   5.66765743  5.55943941 14.56958848
   5.66554610  5.55922149 22.07119911
   6.25814587  6.36429059  9.17139925
   6.19658993  6.36429059 16.71207153
   6.19295970  6.36429059 24.21541818
   7.15216860  6.36429059 10.51950830
   7.11692625  6.36429059 18.05791652
   7.11724796  6.36429059 25.57101024
   6.05698928 10.49101318  9.17139925
   6.08776725 10.54432218 16.71207153
   6.08958237 10.54746606 24.21541818
   5.60997836  9.71676754 10.51950830
   5.62759953  9.74728831 18.05791652
   5.62743867  9.74700970 25.57101024
   2.38256396  8.60185936  9.17139925
   2.41334192  8.54855036 16.71207153
   2.41515704  8.54540648 24.21541818
   1.93555303  9.37610499 10.51950830
   1.95317421  9.34558422 18.05791652
   1.95301335  9.34586284 25.57101024
   8.50632178  6.36429059 12.96264046
   8.49964376  6.36429059 20.46133119
   7.58060457  6.36429059 14.30539850
   7.58016038  6.36429059 21.80796354
   4.93290132  8.54403572 12.96264046
   4.93624034  8.54981906 20.46133119
   5.39576037  9.34573110 14.30539850
   5.39598246  9.34611579 21.80796354
   1.25847600 10.54883681 12.96264046
   1.26181501 10.54305348 20.46133119
   1.72133504  9.74714143 14.30539850
   1.72155714  9.74675675 21.80796354
  13.00406077  1.32376528 14.56958848
  13.00492771  1.32182785 22.07119911
  11.32638904  4.23581364 10.78677254
  11.32209277  4.23650270 18.31955324
  11.31986679  4.23699312 25.84697134
   9.32963682  7.68805577 14.56958848
   9.33050376  7.68611835 22.07119911
   7.65196393 10.60010461 10.78677254
   7.64766766 10.60079368 18.31955324
   7.64544168 10.60128409 25.84697134
  -1.99487230 11.92684746 10.78677254
  -1.99212742 11.92347132 18.31955324
  -1.99058972 11.92178877 25.84697134
  -5.35561636 11.92373038 14.56958848
  -5.35772768 11.92351246 22.07119911
   5.35397703 11.92684746 10.78677254
   5.35672191 11.92347132 18.31955324
   5.35825962 11.92178877 25.84697134
   1.99323320 11.92373038 14.56958848
   1.99112187 11.92351246 22.07119911
   2.51077915  0.00000000 10.14687004
   2.47782977  0.00000000 17.69969972
   2.47493577  0.00000000 25.20374344
   2.48774959  0.00000000 14.91231394
   2.48470089  0.00000000 22.41468540
   2.41903520  4.18989187 10.14687004
   2.43550989  4.21842687 17.69969972
   2.43695689  4.22093315 25.20374344
   2.43054998  4.20983606 14.91231394
   2.43207433  4.21247631 22.41468540
  -1.25538958  2.17439853 10.14687004
  -1.23891489  2.14586353 17.69969972
  -1.23746788  2.14335725 25.20374344
  -1.24387479  2.15445434 14.91231394
  -1.24235044  2.15181409 22.41468540
   4.87208406  0.00000000 13.94953482
   4.86976570  0.00000000 21.44886004
   4.87320485  0.00000000 11.15003695
   4.86255852  0.00000000 18.66229362
   4.84020595  0.00000000 26.14648548
   1.23838297  2.14494222 13.94953482
   1.23954215  2.14694997 21.44886004
   1.23782224  2.14397102 11.15003695
   1.24314541  2.15319101 18.66229362
   1.25432169  2.17254890 26.14648548
  12.26165774  4.21934819 13.94953482
  12.26281691  4.21734043 21.44886004
  12.26109690  4.22031958 11.15003695
  12.26642007  4.21109959 18.66229362
  12.27759635  4.19174169 26.14648548
   9.85962914  0.00000000 10.14687004
   9.82667976  0.00000000 17.69969972
   9.82378576  0.00000000 25.20374344
   9.83660002  0.00000000 14.91231394
   9.83355132  0.00000000 22.41468540
   9.76788497  4.18989187 10.14687004
   9.78435966  4.21842687 17.69969972
   9.78580667  4.22093315 25.20374344
   9.77939932  4.20983606 14.91231394
   9.78092367  4.21247631 22.41468540
   6.09346020  2.17439853 10.14687004
   6.10993489  2.14586353 17.69969972
   6.11138189  2.14335725 25.20374344
   6.10497498  2.15445434 14.91231394
   6.10649933  2.15181409 22.41468540
  12.22093296  0.00000000 13.94953482
  12.21861460  0.00000000 21.44886004
  12.22205462  0.00000000 11.15003695
  12.21140830  0.00000000 18.66229362
  12.18905572  0.00000000 26.14648548
   8.58723252  2.14494222 13.94953482
   8.58839170  2.14694997 21.44886004
   8.58667245  2.14397102 11.15003695
   8.59199562  2.15319101 18.66229362
   8.60317190  2.17254890 26.14648548
   4.91280796  4.21934819 13.94953482
   4.91396714  4.21734043 21.44886004
   4.91224713  4.22031958 11.15003695
   4.91757029  4.21109959 18.66229362
   4.92874658  4.19174169 26.14648548
  -1.16364573  6.36429059 10.14687004
  -1.19659511  6.36429059 17.69969972
  -1.19948912  6.36429059 25.20374344
  -1.18667530  6.36429059 14.91231394
  -1.18972400  6.36429059 22.41468540
  -1.25538925 10.55418322 10.14687004
  -1.23891456 10.58271823 17.69969972
  -1.23746756 10.58522450 25.20374344
  -1.24387468 10.57412628 14.91231394
  -1.24235033 10.57676653 22.41468540
   9.76788497  8.53868931 10.14687004
   9.78435966  8.51015431 17.69969972
   9.78580667  8.50764803 25.20374344
  -4.91830001  8.51874550 14.91231394
  -4.91677566  8.51610525 22.41468540
   1.19765917  6.36429059 13.94953482
   1.19534082  6.36429059 21.44886004
   1.19878040  6.36429059 11.15003695
   1.18813407  6.36429059 18.66229362
   1.16578150  6.36429059 26.14648548
  -2.43604203  8.50923338 13.94953482
  -2.43488285  8.51124113 21.44886004
  -2.43660308  8.50826199 11.15003695
  -2.43127992  8.51748198 18.66229362
  -2.42010363  8.53683987 26.14648548
  -6.11046692 10.58363916 13.94953482
  -6.10930774 10.58163140 21.44886004
  -6.11102731 10.58460979 11.15003695
  -6.10570415 10.57538980 18.66229362
  -6.09452786 10.55603191 26.14648548
   6.18520338  6.36429059 10.14687004
   6.15225400  6.36429059 17.69969972
   6.14936000  6.36429059 25.20374344
   6.16217513  6.36429059 14.91231394
   6.15912643  6.36429059 22.41468540
   6.09345965 10.55418322 10.14687004
   6.10993434 10.58271823 17.69969972
   6.11138134 10.58522450 25.20374344
   6.10497465 10.57412628 14.91231394
   6.10649900 10.57676653 22.41468540
   2.41903520  8.53868931 10.14687004
   2.43550989  8.51015431 17.69969972
   2.43695689  8.50764803 25.20374344
   2.43054976  8.51874550 14.91231394
   2.43207411  8.51610525 22.41468540
   8.54650807  6.36429059 13.94953482
   8.54418971  6.36429059 21.44886004
   8.54762974  6.36429059 11.15003695
   8.53698341  6.36429059 18.66229362
   8.51463084  6.36429059 26.14648548
   4.91280731  8.50923338 13.94953482
   4.91396648  8.51124113 21.44886004
   4.91224735  8.50826199 11.15003695
   4.91757051  8.51748198 18.66229362
   4.92874680  8.53683987 26.14648548
   1.23838373 10.58363916 13.94953482
   1.23954291 10.58163140 21.44886004
   1.23782246 10.58460979 11.15003695
   1.24314563 10.57538980 18.66229362
   1.25432191 10.55603191 26.14648548
 


--------------------------------------------------------------------------------------------------------


 use parallel FFT for orbitals z direction half grid
 k-point  1 :   0.0000 0.0000 0.0000  plane waves:   83586

 maximum and minimum number of plane-waves per node :      4185     4175

 maximum number of plane-waves:     83586
 maximum index in each direction: 
   IXMAX=   23   IYMAX=   23   IZMAX=   80
   IXMIN=  -23   IYMIN=  -23   IZMIN=    0


 real space projection operators:
  total allocation   :      22131.00 KBytes
  max/ min on nodes  :       1258.62        904.36


 parallel 3D FFT for wavefunctions:
    minimum data exchange during FFTs selected (reduces bandwidth)
 parallel 3D FFT for charge:
    minimum data exchange during FFTs selected (reduces bandwidth)


 total amount of memory used by VASP MPI-rank0    84031. kBytes
=======================================================================

   base      :      30000. kBytes
   nonlr-proj:       1519. kBytes
   fftplans  :      10983. kBytes
   grid      :      19058. kBytes
   one-center:         27. kBytes
   wavefun   :      22444. kBytes
 
     INWAV:  cpu time    0.0000: real time    0.0000
 Broyden mixing: mesh for mixing (old mesh)
   NGX = 47   NGY = 47   NGZ =161
  (NGX  =144   NGY  =144   NGZ  =500)
  gives a total of 355649 points

 initial charge density was supplied:
 charge density of overlapping atoms calculated
 number of electron     960.0000000 magnetization 
 keeping initial charge density in first step


--------------------------------------------------------------------------------------------------------


 Maximum index for non-local projection operator          147
 Maximum index for augmentation-charges          165 (set IRDMAX)


--------------------------------------------------------------------------------------------------------


 First call to EWALD:  gamma=   0.085
 Maximum number of real-space cells 4x 4x 1
 Maximum number of reciprocal cells 2x 2x 6

    FEWALD:  cpu time    0.0161: real time    0.0162


--------------------------------------- Iteration      1(   1)  ---------------------------------------


    POTLOK:  cpu time    0.2079: real time    0.2124
    SETDIJ:  cpu time    0.0096: real time    0.0099
     EDDAV:  cpu time    8.1791: real time    8.2669
       DOS:  cpu time    0.0003: real time    0.0003
    --------------------------------------------
      LOOP:  cpu time    8.3969: real time    8.4896

 eigenvalue-minimisations  :  1532
 total energy-change (2. order) : 0.8452522E+04  (-0.3920407E+05)
 number of electron     960.0000000 magnetization 
 augmentation part      960.0000000 magnetization 

 DIPCOR: dipole corrections for dipol
 direction  3 min pos   388,
 dipolmoment           0.000000      0.000000      0.020258 electrons x Angstroem
 Tr[quadrupol]    -35936.080187

 energy correction for charged system         0.000000 eV
 dipol+quadrupol energy correction           -0.000004 eV
 added-field ion interaction         -1.763036 eV  (added to PSCEN)


 Free energy of the ion-electron system (eV)
  ---------------------------------------------------
  alpha Z        PSCENC =       349.06914727
  Ewald energy   TEWEN  =    687359.21758808
  -Hartree energ DENC   =   -732350.31878705
  -exchange      EXHF   =         0.00000000
  -V(xc)+E(xc)   XCENC  =      3937.25672402
  PAW double counting   =     42098.10381150   -42316.07495958
  entropy T*S    EENTRO =        -0.51410050
  eigenvalues    EBANDS =     -5490.67285057
  atomic energy  EATOM  =     54866.45536386
  Solvation  Ediel_sol  =         0.00000000
  ---------------------------------------------------
  free energy    TOTEN  =      8452.52193703 eV

  energy without entropy =     8453.03603753  energy(sigma->0) =     8452.77898728


--------------------------------------------------------------------------------------------------------




--------------------------------------- Iteration      1(   2)  ---------------------------------------


     EDDAV:  cpu time    9.0270: real time    9.1226
       DOS:  cpu time    0.0002: real time    0.0002
    --------------------------------------------
      LOOP:  cpu time    9.0273: real time    9.1228

 eigenvalue-minimisations  :  1738
 total energy-change (2. order) :-0.8675047E+04  (-0.8335822E+04)
 number of electron     960.0000000 magnetization 
 augmentation part      960.0000000 magnetization 

 DIPCOR: dipole corrections for dipol
 direction  3 min pos   388,
 dipolmoment           0.000000      0.000000      0.020258 electrons x Angstroem
 Tr[quadrupol]    -35936.080187

 energy correction for charged system         0.000000 eV
 dipol+quadrupol energy correction           -0.000004 eV
 added-field ion interaction         -1.763036 eV  (added to PSCEN)


 Free energy of the ion-electron system (eV)
  ---------------------------------------------------
  alpha Z        PSCENC =       349.06914727
  Ewald energy   TEWEN  =    687359.21758808
  -Hartree energ DENC   =   -732350.31878705
  -exchange      EXHF   =         0.00000000
  -V(xc)+E(xc)   XCENC  =      3937.25672402
  PAW double counting   =     42098.10381150   -42316.07495958
  entropy T*S    EENTRO =        -0.00000000
  eigenvalues    EBANDS =    -14166.23433870
  atomic energy  EATOM  =     54866.45536386
  Solvation  Ediel_sol  =         0.00000000
  ---------------------------------------------------
  free energy    TOTEN  =      -222.52545060 eV

  energy without entropy =     -222.52545060  energy(sigma->0) =     -222.52545060


--------------------------------------------------------------------------------------------------------




--------------------------------------- Iteration      1(   3)  ---------------------------------------


     EDDAV:  cpu time    8.3069: real time    8.3960
       DOS:  cpu time    0.0002: real time    0.0002
    --------------------------------------------
      LOOP:  cpu time    8.3071: real time    8.3962

 eigenvalue-minimisations  :  1568
 total energy-change (2. order) :-0.1670009E+04  (-0.1661360E+04)
 number of electron     960.0000000 magnetization 
 augmentation part      960.0000000 magnetization 

 DIPCOR: dipole corrections for dipol
 direction  3 min pos   388,
 dipolmoment           0.000000      0.000000      0.020258 electrons x Angstroem
 Tr[quadrupol]    -35936.080187

 energy correction for charged system         0.000000 eV
 dipol+quadrupol energy correction           -0.000004 eV
 added-field ion interaction         -1.763036 eV  (added to PSCEN)


 Free energy of the ion-electron system (eV)
  ---------------------------------------------------
  alpha Z        PSCENC =       349.06914727
  Ewald energy   TEWEN  =    687359.21758808
  -Hartree energ DENC   =   -732350.31878705
  -exchange      EXHF   =         0.00000000
  -V(xc)+E(xc)   XCENC  =      3937.25672402
  PAW double counting   =     42098.10381150   -42316.07495958
  entropy T*S    EENTRO =        -0.00000000
  eigenvalues    EBANDS =    -15836.24300451
  atomic energy  EATOM  =     54866.45536386
  Solvation  Ediel_sol  =         0.00000000
  ---------------------------------------------------
  free energy    TOTEN  =     -1892.53411641 eV

  energy without entropy =    -1892.53411641  energy(sigma->0) =    -1892.53411641


--------------------------------------------------------------------------------------------------------




--------------------------------------- Iteration      1(   4)  ---------------------------------------


     EDDAV:  cpu time    8.4076: real time    8.5020
       DOS:  cpu time    0.0002: real time    0.0002
    --------------------------------------------
      LOOP:  cpu time    8.4079: real time    8.5022

 eigenvalue-minimisations  :  1592
 total energy-change (2. order) :-0.4825600E+02  (-0.4809770E+02)
 number of electron     960.0000000 magnetization 
 augmentation part      960.0000000 magnetization 

 DIPCOR: dipole corrections for dipol
 direction  3 min pos   388,
 dipolmoment           0.000000      0.000000      0.020258 electrons x Angstroem
 Tr[quadrupol]    -35936.080187

 energy correction for charged system         0.000000 eV
 dipol+quadrupol energy correction           -0.000004 eV
 added-field ion interaction         -1.763036 eV  (added to PSCEN)


 Free energy of the ion-electron system (eV)
  ---------------------------------------------------
  alpha Z        PSCENC =       349.06914727
  Ewald energy   TEWEN  =    687359.21758808
  -Hartree energ DENC   =   -732350.31878705
  -exchange      EXHF   =         0.00000000
  -V(xc)+E(xc)   XCENC  =      3937.25672402
  PAW double counting   =     42098.10381150   -42316.07495958
  entropy T*S    EENTRO =        -0.00000000
  eigenvalues    EBANDS =    -15884.49900066
  atomic energy  EATOM  =     54866.45536386
  Solvation  Ediel_sol  =         0.00000000
  ---------------------------------------------------
  free energy    TOTEN  =     -1940.79011256 eV

  energy without entropy =    -1940.79011256  energy(sigma->0) =    -1940.79011256


--------------------------------------------------------------------------------------------------------




--------------------------------------- Iteration      1(   5)  ---------------------------------------


     EDDAV:  cpu time    8.5259: real time    8.6166
       DOS:  cpu time    0.0003: real time    0.0003
    CHARGE:  cpu time    0.3983: real time    0.4017
    MIXING:  cpu time    0.0061: real time    0.0067
    --------------------------------------------
      LOOP:  cpu time    8.9306: real time    9.0253

 eigenvalue-minimisations  :  1624
 total energy-change (2. order) :-0.1170657E+01  (-0.1170193E+01)
 number of electron     959.9999983 magnetization 
 augmentation part       97.1509856 magnetization 

 DIPCOR: dipole corrections for dipol
 direction  3 min pos   388,
 dipolmoment           0.000000      0.000000      0.020258 electrons x Angstroem
 Tr[quadrupol]    -35936.080187

 energy correction for charged system         0.000000 eV
 dipol+quadrupol energy correction           -0.000004 eV
 added-field ion interaction         -1.763036 eV  (added to PSCEN)


 Broyden mixing:
  rms(total) = 0.76189E+01    rms(broyden)= 0.76053E+01
  rms(prec ) = 0.77224E+01
  weight for this iteration     100.00

 Free energy of the ion-electron system (eV)
  ---------------------------------------------------
  alpha Z        PSCENC =       349.06914727
  Ewald energy   TEWEN  =    687359.21758808
  -Hartree energ DENC   =   -732350.31878705
  -exchange      EXHF   =         0.00000000
  -V(xc)+E(xc)   XCENC  =      3937.25672402
  PAW double counting   =     42098.10381150   -42316.07495958
  entropy T*S    EENTRO =        -0.00000000
  eigenvalues    EBANDS =    -15885.66965739
  atomic energy  EATOM  =     54866.45536386
  Solvation  Ediel_sol  =         0.00000000
  ---------------------------------------------------
  free energy    TOTEN  =     -1941.96076929 eV

  energy without entropy =    -1941.96076929  energy(sigma->0) =    -1941.96076929


--------------------------------------------------------------------------------------------------------




--------------------------------------- Iteration      1(   6)  ---------------------------------------


    POTLOK:  cpu time    0.1985: real time    0.2005
    SETDIJ:  cpu time    0.0090: real time    0.0090
    EDDIAG:  cpu time    1.1802: real time    1.1929
  RMM-DIIS:  cpu time    5.2015: real time    5.2648
    ORTHCH:  cpu time    0.1814: real time    0.1836
       DOS:  cpu time    0.0003: real time    0.0003
    CHARGE:  cpu time    0.4040: real time    0.4072
    MIXING:  cpu time    0.0075: real time    0.0077
    --------------------------------------------
      LOOP:  cpu time    7.1823: real time    7.2660

 eigenvalue-minimisations  :  1681
 total energy-change (2. order) : 0.1619109E+03  (-0.5745201E+02)
 number of electron     959.9999833 magnetization 
 augmentation part       85.6699550 magnetization 

 DIPCOR: dipole corrections for dipol
 direction  3 min pos   413,
 dipolmoment           0.000000      0.000000      4.591323 electrons x Angstroem
 Tr[quadrupol]    -35926.028441

 energy correction for charged system         0.000000 eV
 dipol+quadrupol energy correction           -0.207199 eV
 added-field ion interaction       -186.411622 eV  (added to PSCEN)


 Broyden mixing:
  rms(total) = 0.28593E+01    rms(broyden)= 0.28558E+01
  rms(prec ) = 0.28903E+01
  weight for this iteration     100.00

 eigenvalues of (default mixing * dielectric matrix)
  average eigenvalue GAMMA=   1.0438
  1.0438

 Free energy of the ion-electron system (eV)
  ---------------------------------------------------
  alpha Z        PSCENC =       164.21336619
  Ewald energy   TEWEN  =    687359.21758808
  -Hartree energ DENC   =   -734718.52883771
  -exchange      EXHF   =         0.00000000
  -V(xc)+E(xc)   XCENC  =      4070.89064884
  PAW double counting   =     53282.85232469   -53537.94675563
  entropy T*S    EENTRO =        -0.00000002
  eigenvalues    EBANDS =    -13267.20353462
  atomic energy  EATOM  =     54866.45536386
  Solvation  Ediel_sol  =         0.00000000
  ---------------------------------------------------
  free energy    TOTEN  =     -1780.04983631 eV

  energy without entropy =    -1780.04983629  energy(sigma->0) =    -1780.04983630


--------------------------------------------------------------------------------------------------------




--------------------------------------- Iteration      1(   7)  ---------------------------------------


    POTLOK:  cpu time    0.2026: real time    0.2045
    SETDIJ:  cpu time    0.0090: real time    0.0090
    EDDIAG:  cpu time    1.1748: real time    1.1877
  RMM-DIIS:  cpu time    5.1495: real time    5.2136
    ORTHCH:  cpu time    0.1831: real time    0.1849
       DOS:  cpu time    0.0003: real time    0.0003
    CHARGE:  cpu time    0.4141: real time    0.4174
    MIXING:  cpu time    0.0073: real time    0.0074
    --------------------------------------------
      LOOP:  cpu time    7.1406: real time    7.2247

 eigenvalue-minimisations  :  1669
 total energy-change (2. order) : 0.1064007E+00  (-0.3022722E+01)
 number of electron     959.9999881 magnetization 
 augmentation part       81.2079517 magnetization 

 DIPCOR: dipole corrections for dipol
 direction  3 min pos   428,
 dipolmoment           0.000000      0.000000      8.125007 electrons x Angstroem
 Tr[quadrupol]    -35943.109685

 energy correction for charged system         0.000000 eV
 dipol+quadrupol energy correction           -0.648872 eV
 added-field ion interaction       -103.551305 eV  (added to PSCEN)


 Broyden mixing:
  rms(total) = 0.31684E+01    rms(broyden)= 0.31542E+01
  rms(prec ) = 0.35674E+01
  weight for this iteration     100.00

 eigenvalues of (default mixing * dielectric matrix)
  average eigenvalue GAMMA=   0.7261
  0.8656  0.5866

 Free energy of the ion-electron system (eV)
  ---------------------------------------------------
  alpha Z        PSCENC =       246.63201094
  Ewald energy   TEWEN  =    687359.21758808
  -Hartree energ DENC   =   -735321.84367427
  -exchange      EXHF   =         0.00000000
  -V(xc)+E(xc)   XCENC  =      4101.17299795
  PAW double counting   =     59581.20340413   -59838.18312120
  entropy T*S    EENTRO =        -0.62721432
  eigenvalues    EBANDS =    -12773.97079083
  atomic energy  EATOM  =     54866.45536386
  Solvation  Ediel_sol  =         0.00000000
  ---------------------------------------------------
  free energy    TOTEN  =     -1779.94343564 eV

  energy without entropy =    -1779.31622132  energy(sigma->0) =    -1779.62982848


--------------------------------------------------------------------------------------------------------




--------------------------------------- Iteration      1(   8)  ---------------------------------------


    POTLOK:  cpu time    0.2011: real time    0.2030
    SETDIJ:  cpu time    0.0090: real time    0.0091
    EDDIAG:  cpu time    1.1781: real time    1.1914
  RMM-DIIS:  cpu time    5.0988: real time    5.1611
    ORTHCH:  cpu time    0.1813: real time    0.1833
       DOS:  cpu time    0.0003: real time    0.0003
    CHARGE:  cpu time    0.3976: real time    0.4006
    MIXING:  cpu time    0.0074: real time    0.0075
    --------------------------------------------
      LOOP:  cpu time    7.0736: real time    7.1562

 eigenvalue-minimisations  :  1664
 total energy-change (2. order) :-0.4246455E+01  (-0.1699613E+01)
 number of electron     959.9999824 magnetization 
 augmentation part       84.2458177 magnetization 

 DIPCOR: dipole corrections for dipol
 direction  3 min pos   434,
 dipolmoment           0.000000      0.000000      0.370615 electrons x Angstroem
 Tr[quadrupol]    -35942.078580

 energy correction for charged system         0.000000 eV
 dipol+quadrupol energy correction           -0.001350 eV
 added-field ion interaction         -0.593847 eV  (added to PSCEN)


 Broyden mixing:
  rms(total) = 0.17406E+01    rms(broyden)= 0.17240E+01
  rms(prec ) = 0.17662E+01
  weight for this iteration     100.00

 eigenvalues of (default mixing * dielectric matrix)
  average eigenvalue GAMMA=   1.1890
  2.1270  1.1982  0.2419

 Free energy of the ion-electron system (eV)
  ---------------------------------------------------
  alpha Z        PSCENC =       350.23699027
  Ewald energy   TEWEN  =    687359.21758808
  -Hartree energ DENC   =   -735066.57309078
  -exchange      EXHF   =         0.00000000
  -V(xc)+E(xc)   XCENC  =      4096.99922746
  PAW double counting   =     60121.07411609   -60375.89755720
  entropy T*S    EENTRO =        -0.00000000
  eigenvalues    EBANDS =    -13135.70252836
  atomic energy  EATOM  =     54866.45536386
  Solvation  Ediel_sol  =         0.00000000
  ---------------------------------------------------
  free energy    TOTEN  =     -1784.18989059 eV

  energy without entropy =    -1784.18989059  energy(sigma->0) =    -1784.18989059


--------------------------------------------------------------------------------------------------------




--------------------------------------- Iteration      1(   9)  ---------------------------------------


    POTLOK:  cpu time    0.1999: real time    0.2023
    SETDIJ:  cpu time    0.0089: real time    0.0090
    EDDIAG:  cpu time    1.1730: real time    1.1856
  RMM-DIIS:  cpu time    5.1180: real time    5.1804
    ORTHCH:  cpu time    0.1817: real time    0.1834
       DOS:  cpu time    0.0003: real time    0.0003
    CHARGE:  cpu time    0.4031: real time    0.4060
    MIXING:  cpu time    0.0077: real time    0.0078
    --------------------------------------------
      LOOP:  cpu time    7.0927: real time    7.1749

 eigenvalue-minimisations  :  1672
 total energy-change (2. order) :-0.1806013E+02  (-0.1819062E+01)
 number of electron     959.9999856 magnetization 
 augmentation part       85.1179373 magnetization 

 DIPCOR: dipole corrections for dipol
 direction  3 min pos   441,
 dipolmoment           0.000000      0.000000     -6.504491 electrons x Angstroem
 Tr[quadrupol]    -35922.832890

 energy correction for charged system         0.000000 eV
 dipol+quadrupol energy correction           -0.415851 eV
 added-field ion interaction        -74.132844 eV  (added to PSCEN)


 Broyden mixing:
  rms(total) = 0.11393E+01    rms(broyden)= 0.11378E+01
  rms(prec ) = 0.12279E+01
  weight for this iteration     100.00

 eigenvalues of (default mixing * dielectric matrix)
  average eigenvalue GAMMA=   1.1983
  2.3533  1.0865  1.0865  0.2669

 Free energy of the ion-electron system (eV)
  ---------------------------------------------------
  alpha Z        PSCENC =       276.28349240
  Ewald energy   TEWEN  =    687359.21758808
  -Hartree energ DENC   =   -735088.80433723
  -exchange      EXHF   =         0.00000000
  -V(xc)+E(xc)   XCENC  =      4108.81529214
  PAW double counting   =     66227.24627591   -66478.14429199
  entropy T*S    EENTRO =        -0.00042324
  eigenvalues    EBANDS =    -13073.31898152
  atomic energy  EATOM  =     54866.45536386
  Solvation  Ediel_sol  =         0.00000000
  ---------------------------------------------------
  free energy    TOTEN  =     -1802.25002158 eV

  energy without entropy =    -1802.24959834  energy(sigma->0) =    -1802.24980996


--------------------------------------------------------------------------------------------------------




--------------------------------------- Iteration      1(  10)  ---------------------------------------


    POTLOK:  cpu time    0.2004: real time    0.2027
    SETDIJ:  cpu time    0.0090: real time    0.0090
    EDDIAG:  cpu time    1.1724: real time    1.1852
  RMM-DIIS:  cpu time    5.2113: real time    5.2743
    ORTHCH:  cpu time    0.1820: real time    0.1838
       DOS:  cpu time    0.0003: real time    0.0003
    CHARGE:  cpu time    0.4018: real time    0.4052
    MIXING:  cpu time    0.0079: real time    0.0080
    --------------------------------------------
      LOOP:  cpu time    7.1850: real time    7.2686

 eigenvalue-minimisations  :  1687
 total energy-change (2. order) : 0.4173791E+01  (-0.5139568E+00)
 number of electron     959.9999856 magnetization 
 augmentation part       84.3354220 magnetization 

 DIPCOR: dipole corrections for dipol
[...]
      6.16218      6.36429     14.91231         2.866748     -0.000000      2.798876
      6.15913      6.36429     22.41469         5.508875     -0.000000      5.251622
      6.09346     10.55418     10.14687         4.809209      8.329794     15.959649
      6.10993     10.58272     17.69970         1.044985      1.809967      1.236069
      6.11138     10.58522     25.20374         2.193701      3.799602      6.363689
      6.10497     10.57413     14.91231        -1.433374     -2.482677      2.798876
      6.10650     10.57677     22.41469        -2.754438     -4.770826      5.251622
      2.41904      8.53869     10.14687         4.809209     -8.329794     15.959649
      2.43551      8.51015     17.69970         1.044985     -1.809967      1.236069
      2.43696      8.50765     25.20374         2.193701     -3.799602      6.363689
      2.43055      8.51875     14.91231        -1.433374      2.482677      2.798876
      2.43207      8.51611     22.41469        -2.754438      4.770826      5.251622
      8.54651      6.36429     13.94953         8.877902     -0.000000      5.755067
      8.54419      6.36429     21.44886         1.017875     -0.000000      0.113031
      8.54763      6.36429     11.15004        -3.514242     -0.000000      1.252731
      8.53698      6.36429     18.66229        -0.672133     -0.000000     -1.954750
      8.51463      6.36429     26.14649        -7.771724     -0.000000     12.794583
      4.91281      8.50923     13.94953        -4.438951     -7.688488      5.755067
      4.91397      8.51124     21.44886        -0.508937     -0.881505      0.113031
      4.91225      8.50826     11.15004         1.757121      3.043423      1.252731
      4.91757      8.51748     18.66229         0.336067      0.582084     -1.954750
      4.92875      8.53684     26.14649         3.885862      6.730510     12.794583
      1.23838     10.58364     13.94953        -4.438951      7.688488      5.755067
      1.23954     10.58163     21.44886        -0.508937      0.881505      0.113031
      1.23782     10.58461     11.15004         1.757121     -3.043423      1.252731
      1.24315     10.57539     18.66229         0.336067     -0.582084     -1.954750
      1.25432     10.55603     26.14649         3.885862     -6.730510     12.794583
 -----------------------------------------------------------------------------------
    total drift:                               -0.032291     -0.081207    145.259104


--------------------------------------------------------------------------------------------------------



  FREE ENERGIE OF THE ION-ELECTRON SYSTEM (eV)
  ---------------------------------------------------
  free  energy   TOTEN  =     -1187.07117246 eV

  energy  without entropy=    -1186.45751543  energy(sigma->0) =    -1186.76434395
 


--------------------------------------------------------------------------------------------------------


    POTLOK:  cpu time    0.2129: real time    0.2151


--------------------------------------------------------------------------------------------------------


     LOOP+:  cpu time 4612.9962: real time 4668.4420
 vacuum level on the upper side and lower side of the slab        32.253       -16.669
    4ORBIT:  cpu time    0.0000: real time    0.0000
 


 total charge     
 
# of ion       s       p       d       tot
------------------------------------------
    1        0.620   0.146   0.000   0.766
    2        0.547   0.087   0.000   0.634
    3        0.640   0.150   0.000   0.790
    4        0.547   0.087   0.000   0.634
    5        0.514   0.109   0.000   0.623
    6        0.579   0.109   0.000   0.687
    7        0.468   0.056   0.000   0.524
    8        0.530   0.112   0.000   0.642
    9        0.578   0.109   0.000   0.687
   10        0.469   0.056   0.000   0.525
   11        0.517   0.111   0.000   0.628
   12        0.578   0.109   0.000   0.687
   13        0.468   0.056   0.000   0.524
   14        0.529   0.114   0.000   0.643
   15        0.580   0.109   0.000   0.689
   16        0.469   0.056   0.000   0.525
   17        0.613   0.146   0.000   0.759
   18        0.547   0.087   0.000   0.634
   19        0.623   0.145   0.000   0.768
   20        0.547   0.087   0.000   0.634
   21        0.637   0.176   0.000   0.813
   22        0.575   0.122   0.000   0.697
   23        0.567   0.083   0.000   0.650
   24        0.498   0.124   0.000   0.622
   25        0.495   0.113   0.000   0.608
   26        0.506   0.059   0.000   0.565
   27        0.520   0.148   0.000   0.668
   28        0.552   0.118   0.000   0.670
   29        0.567   0.083   0.000   0.650
   30        0.463   0.114   0.000   0.576
   31        0.482   0.110   0.000   0.592
   32        0.506   0.059   0.000   0.565
   33        0.589   0.168   0.000   0.757
   34        0.542   0.116   0.000   0.658
   35        0.567   0.083   0.000   0.650
   36        0.476   0.118   0.000   0.594
   37        0.475   0.109   0.000   0.584
   38        0.506   0.059   0.000   0.565
   39        0.574   0.148   0.000   0.722
   40        0.602   0.110   0.000   0.712
   41        0.533   0.132   0.000   0.665
   42        0.520   0.082   0.000   0.602
   43        0.578   0.147   0.000   0.725
   44        0.601   0.110   0.000   0.711
   45        0.572   0.137   0.000   0.709
   46        0.520   0.082   0.000   0.602
   47        0.579   0.150   0.000   0.729
   48        0.601   0.110   0.000   0.711
   49        0.563   0.133   0.000   0.696
   50        0.520   0.082   0.000   0.602
   51        0.624   0.146   0.000   0.770
   52        0.547   0.087   0.000   0.634
   53        0.566   0.137   0.000   0.704
   54        0.547   0.087   0.000   0.634
   55        0.601   0.143   0.000   0.744
   56        0.547   0.087   0.000   0.634
   57        0.563   0.122   0.000   0.685
   58        0.579   0.109   0.000   0.689
   59        0.468   0.056   0.000   0.524
   60        0.574   0.122   0.000   0.696
   61        0.578   0.109   0.000   0.688
   62        0.469   0.056   0.000   0.525
   63        0.575   0.123   0.000   0.698
   64        0.579   0.109   0.000   0.688
   65        0.468   0.056   0.000   0.524
   66        0.566   0.120   0.000   0.685
   67        0.579   0.109   0.000   0.688
   68        0.468   0.056   0.000   0.524
   69        0.511   0.109   0.000   0.620
   70        0.579   0.109   0.000   0.687
   71        0.469   0.056   0.000   0.525
   72        0.632   0.146   0.000   0.778
   73        0.547   0.087   0.000   0.634
   74        0.591   0.140   0.000   0.731
   75        0.547   0.087   0.000   0.634
   76        0.562   0.160   0.000   0.722
   77        0.607   0.128   0.000   0.735
   78        0.567   0.083   0.000   0.650
   79        0.465   0.117   0.000   0.582
   80        0.514   0.117   0.000   0.631
   81        0.506   0.059   0.000   0.565
   82        0.540   0.157   0.000   0.696
   83        0.599   0.129   0.000   0.728
   84        0.567   0.083   0.000   0.650
   85        0.469   0.116   0.000   0.585
   86        0.507   0.116   0.000   0.623
   87        0.506   0.059   0.000   0.565
   88        0.584   0.163   0.000   0.748
   89        0.628   0.135   0.000   0.763
   90        0.567   0.083   0.000   0.650
   91        0.475   0.121   0.000   0.596
   92        0.524   0.119   0.000   0.643
   93        0.506   0.059   0.000   0.565
   94        0.547   0.148   0.000   0.695
   95        0.601   0.110   0.000   0.711
   96        0.574   0.133   0.000   0.707
   97        0.520   0.082   0.000   0.602
   98        0.537   0.142   0.000   0.680
   99        0.601   0.110   0.000   0.712
  100        0.530   0.127   0.000   0.657
  101        0.520   0.082   0.000   0.602
  102        0.592   0.156   0.000   0.747
  103        0.601   0.110   0.000   0.711
  104        0.586   0.139   0.000   0.725
  105        0.520   0.082   0.000   0.602
  106        0.640   0.150   0.000   0.790
  107        0.547   0.087   0.000   0.634
  108        0.612   0.148   0.000   0.760
  109        0.547   0.087   0.000   0.634
  110        0.565   0.120   0.000   0.684
  111        0.578   0.109   0.000   0.687
  112        0.468   0.056   0.000   0.524
  113        0.573   0.121   0.000   0.694
  114        0.579   0.109   0.000   0.688
  115        0.468   0.056   0.000   0.524
  116        0.520   0.110   0.000   0.630
  117        0.578   0.109   0.000   0.687
  118        0.469   0.056   0.000   0.525
  119        0.574   0.122   0.000   0.696
  120        0.579   0.109   0.000   0.688
  121        0.468   0.056   0.000   0.524
  122        0.567   0.120   0.000   0.687
  123        0.579   0.109   0.000   0.688
  124        0.469   0.056   0.000   0.525
  125        0.628   0.149   0.000   0.777
  126        0.547   0.087   0.000   0.634
  127        0.614   0.145   0.000   0.759
  128        0.547   0.087   0.000   0.634
  129        0.625   0.147   0.000   0.772
  130        0.547   0.087   0.000   0.634
  131        0.514   0.145   0.000   0.659
  132        0.588   0.124   0.000   0.712
  133        0.567   0.083   0.000   0.650
  134        0.441   0.111   0.000   0.552
  135        0.502   0.114   0.000   0.616
  136        0.506   0.059   0.000   0.565
  137        0.531   0.163   0.000   0.694
  138        0.596   0.126   0.000   0.722
  139        0.567   0.083   0.000   0.650
  140        0.448   0.111   0.000   0.558
  141        0.507   0.115   0.000   0.623
  142        0.506   0.059   0.000   0.565
  143        0.487   0.139   0.000   0.626
  144        0.574   0.123   0.000   0.697
  145        0.567   0.083   0.000   0.650
  146        0.433   0.109   0.000   0.542
  147        0.495   0.113   0.000   0.608
  148        0.506   0.059   0.000   0.565
  149        0.538   0.142   0.000   0.681
  150        0.602   0.110   0.000   0.712
  151        0.529   0.127   0.000   0.656
  152        0.520   0.082   0.000   0.602
  153        0.529   0.144   0.000   0.673
  154        0.601   0.110   0.000   0.711
  155        0.535   0.127   0.000   0.662
  156        0.520   0.082   0.000   0.602
  157        0.570   0.148   0.000   0.718
  158        0.602   0.110   0.000   0.712
  159        0.593   0.136   0.000   0.729
  160        0.520   0.082   0.000   0.602
  161        0.593   0.142   0.000   0.735
  162        0.547   0.087   0.000   0.634
  163        0.634   0.152   0.000   0.785
  164        0.547   0.087   0.000   0.634
  165        0.627   0.147   0.000   0.774
  166        0.547   0.087   0.000   0.634
  167        0.591   0.125   0.000   0.716
  168        0.579   0.109   0.000   0.688
  169        0.468   0.056   0.000   0.524
  170        0.590   0.125   0.000   0.714
  171        0.579   0.109   0.000   0.688
  172        0.468   0.056   0.000   0.524
  173        0.591   0.126   0.000   0.717
  174        0.579   0.109   0.000   0.688
  175        0.469   0.056   0.000   0.525
  176        0.591   0.124   0.000   0.715
  177        0.579   0.109   0.000   0.688
  178        0.468   0.056   0.000   0.524
  179        0.589   0.124   0.000   0.713
  180        0.578   0.109   0.000   0.688
  181        0.468   0.056   0.000   0.524
  182        0.591   0.126   0.000   0.717
  183        0.579   0.109   0.000   0.688
  184        0.469   0.056   0.000   0.525
  185        0.626   0.149   0.000   0.775
  186        0.547   0.087   0.000   0.634
  187        0.636   0.151   0.000   0.787
  188        0.547   0.087   0.000   0.634
  189        0.605   0.142   0.000   0.746
  190        0.547   0.087   0.000   0.634
  191        0.528   0.153   0.000   0.681
  192        0.552   0.120   0.000   0.673
  193        0.567   0.083   0.000   0.650
  194        0.447   0.112   0.000   0.559
  195        0.483   0.110   0.000   0.594
  196        0.506   0.059   0.000   0.565
  197        0.532   0.158   0.000   0.690
  198        0.523   0.114   0.000   0.637
  199        0.567   0.083   0.000   0.650
  200        0.445   0.112   0.000   0.557
  201        0.465   0.107   0.000   0.572
  202        0.506   0.059   0.000   0.565
  203        0.509   0.148   0.000   0.656
  204        0.602   0.128   0.000   0.730
  205        0.567   0.083   0.000   0.650
  206        0.430   0.109   0.000   0.539
  207        0.508   0.116   0.000   0.624
  208        0.506   0.059   0.000   0.565
  209        0.590   0.158   0.000   0.748
  210        0.601   0.110   0.000   0.712
  211        0.618   0.141   0.000   0.759
  212        0.520   0.082   0.000   0.602
  213        0.543   0.145   0.000   0.688
  214        0.602   0.110   0.000   0.712
  215        0.556   0.130   0.000   0.687
  216        0.520   0.082   0.000   0.602
  217        0.564   0.149   0.000   0.714
  218        0.601   0.110   0.000   0.711
  219        0.572   0.133   0.000   0.705
  220        0.520   0.082   0.000   0.602
  221        0.607   0.144   0.000   0.751
  222        0.547   0.087   0.000   0.634
  223        0.531   0.114   0.000   0.645
  224        0.579   0.109   0.000   0.688
  225        0.468   0.056   0.000   0.524
  226        0.628   0.149   0.000   0.777
  227        0.547   0.087   0.000   0.634
  228        0.520   0.111   0.000   0.631
  229        0.578   0.109   0.000   0.687
  230        0.468   0.056   0.000   0.524
  231        0.531   0.113   0.000   0.644
  232        0.580   0.109   0.000   0.688
  233        0.468   0.056   0.000   0.524
  234        0.630   0.148   0.000   0.777
  235        0.547   0.087   0.000   0.634
  236        0.514   0.111   0.000   0.625
  237        0.578   0.109   0.000   0.687
  238        0.468   0.056   0.000   0.524
  239        0.621   0.145   0.000   0.767
  240        0.547   0.087   0.000   0.634
  241        1.160   4.079   0.000   5.238
  242        1.253   3.822   0.000   5.075
  243        1.562   2.067   0.000   3.629
  244        1.586   4.001   0.000   5.588
  245        1.563   2.164   0.000   3.727
  246        0.637   3.998   0.000   4.635
  247        1.098   3.814   0.000   4.911
  248        1.563   2.068   0.000   3.630
  249        1.637   4.005   0.000   5.641
  250        1.563   2.168   0.000   3.731
  251        0.952   4.063   0.000   5.015
  252        1.028   3.809   0.000   4.837
  253        1.562   2.068   0.000   3.629
  254        1.396   4.006   0.000   5.402
  255        1.563   2.165   0.000   3.729
  256        0.862   4.182   0.000   5.043
  257        1.596   3.373   0.000   4.969
  258        1.100   3.687   0.000   4.787
  259        1.585   3.593   0.000   5.178
  260        1.470   1.024   0.000   2.494
  261        1.006   4.184   0.000   5.190
  262        1.596   3.369   0.000   4.965
  263        0.914   3.682   0.000   4.596
  264        1.582   3.582   0.000   5.165
  265        1.469   1.023   0.000   2.492
  266        0.898   4.196   0.000   5.095
  267        1.596   3.372   0.000   4.968
  268        1.094   3.677   0.000   4.771
  269        1.579   3.588   0.000   5.167
  270        1.470   1.024   0.000   2.494
  271        0.755   4.041   0.000   4.795
  272        1.477   3.832   0.000   5.308
  273        1.562   2.068   0.000   3.629
  274        1.591   4.001   0.000   5.592
  275        1.563   2.164   0.000   3.727
  276        0.648   4.035   0.000   4.683
  277        1.402   3.836   0.000   5.238
  278        1.563   2.067   0.000   3.630
  279        1.108   4.006   0.000   5.114
  280        1.563   2.167   0.000   3.730
  281        0.895   4.056   0.000   4.951
  282        1.606   3.846   0.000   5.452
  283        1.562   2.067   0.000   3.629
  284        1.539   4.007   0.000   5.546
  285        1.563   2.164   0.000   3.727
  286        0.850   4.194   0.000   5.043
  287        1.596   3.372   0.000   4.968
  288        0.919   3.669   0.000   4.588
  289        1.584   3.590   0.000   5.174
  290        1.470   1.024   0.000   2.494
  291        0.829   4.154   0.000   4.983
  292        1.596   3.371   0.000   4.967
  293        1.400   3.707   0.000   5.107
  294        1.584   3.592   0.000   5.176
  295        1.469   1.023   0.000   2.492
  296        1.254   4.185   0.000   5.439
  297        1.596   3.373   0.000   4.969
  298        1.480   3.702   0.000   5.183
  299        1.584   3.591   0.000   5.176
  300        1.470   1.024   0.000   2.494
  301        0.492   3.987   0.000   4.480
  302        1.330   3.826   0.000   5.157
  303        1.562   2.068   0.000   3.629
  304        1.647   4.001   0.000   5.648
  305        1.563   2.167   0.000   3.730
  306        0.441   4.051   0.000   4.492
  307        1.404   3.830   0.000   5.233
  308        1.563   2.068   0.000   3.630
  309        1.437   4.015   0.000   5.452
  310        1.563   2.169   0.000   3.732
  311        0.355   3.999   0.000   4.354
  312        1.249   3.824   0.000   5.073
  313        1.562   2.067   0.000   3.629
  314        1.591   4.032   0.000   5.624
  315        1.563   2.165   0.000   3.728
  316        0.669   4.181   0.000   4.850
  317        1.596   3.372   0.000   4.969
  318        1.419   3.696   0.000   5.115
  319        1.583   3.584   0.000   5.167
  320        1.470   1.024   0.000   2.494
  321        0.622   4.191   0.000   4.814
  322        1.596   3.369   0.000   4.965
  323        1.482   3.706   0.000   5.187
  324        1.583   3.581   0.000   5.163
  325        1.469   1.023   0.000   2.492
  326        0.954   4.202   0.000   5.157
  327        1.596   3.372   0.000   4.968
  328        1.004   3.688   0.000   4.691
  329        1.582   3.590   0.000   5.171
  330        1.470   1.024   0.000   2.494
  331        0.480   4.034   0.000   4.514
  332        1.106   3.821   0.000   4.928
  333        1.562   2.068   0.000   3.630
  334        1.320   4.026   0.000   5.346
  335        1.563   2.167   0.000   3.731
  336        0.541   4.051   0.000   4.593
  337        0.895   3.812   0.000   4.706
  338        1.563   2.068   0.000   3.630
  339        1.696   4.036   0.000   5.733
  340        1.563   2.168   0.000   3.731
  341        0.351   4.010   0.000   4.360
  342        1.424   3.835   0.000   5.259
  343        1.562   2.068   0.000   3.629
  344        1.516   4.019   0.000   5.534
  345        1.563   2.166   0.000   3.729
  346        1.273   4.221   0.000   5.494
  347        1.596   3.373   0.000   4.969
  348        1.648   3.705   0.000   5.352
  349        1.584   3.597   0.000   5.181
  350        1.470   1.024   0.000   2.494
  351        0.715   4.188   0.000   4.903
  352        1.596   3.372   0.000   4.968
  353        1.637   3.706   0.000   5.343
  354        1.581   3.591   0.000   5.173
  355        1.469   1.023   0.000   2.492
  356        0.878   4.188   0.000   5.066
  357        1.596   3.371   0.000   4.968
  358        1.602   3.710   0.000   5.312
  359        1.583   3.585   0.000   5.167
  360        1.470   1.024   0.000   2.494
--------------------------------------------------
tot        291.991 409.535   0.000 701.526
 

 total amount of memory used by VASP MPI-rank0    84031. kBytes
=======================================================================

   base      :      30000. kBytes
   nonlr-proj:       1519. kBytes
   fftplans  :      10983. kBytes
   grid      :      19058. kBytes
   one-center:         27. kBytes
   wavefun   :      22444. kBytes
 
  
  
 General timing and accounting informations for this job:
 ========================================================
  
                  Total CPU time used (sec):     4654.621
                            User time (sec):     4626.956
                          System time (sec):       27.664
                         Elapsed time (sec):     4711.607
  
                   Maximum memory used (kb):      903300.
                   Average memory used (kb):           0.
  
                          Minor page faults:      1800844
                          Major page faults:            0
                 Voluntary context switches:        49386
