  93  93   0   0
  0.1016658E+02  0.9814900E-09  0.9814900E-09  0.9814900E-09  0.5000000E-15
  1.000000000000000E-004
  CAR 
 ice                                     
      9.78670483    -25.86784047  301     -1.50378512      1.00000000
    -25.868  0.0000E+00  0.0000E+00
    -25.749  0.0000E+00  0.0000E+00
    -25.630  0.0000E+00  0.0000E+00
    -25.511  0.0000E+00  0.0000E+00
    -25.392  0.0000E+00  0.0000E+00
    -25.274  0.0000E+00  0.0000E+00
    -25.155  0.0000E+00  0.0000E+00
    -25.036  0.0000E+00  0.0000E+00
    -24.917  0.0000E+00  0.0000E+00
    -24.798  0.0000E+00  0.0000E+00
    -24.679  0.2942E-02  0.3497E-03
    -24.561  0.2870E-01  0.3760E-02
    -24.442  0.3030E+00  0.3978E-01
    -24.323  0.2684E+01  0.3588E+00
    -24.204  0.8793E+01  0.1404E+01
    -24.085  0.4378E+01  0.1924E+01
    -23.966  0.5809E+00  0.1993E+01
    -23.847  0.9423E-01  0.2004E+01
    -23.729  0.4052E+00  0.2053E+01
    -23.610  0.3386E+01  0.2456E+01
    -23.491  0.9063E+01  0.3533E+01
    -23.372  0.4581E+01  0.4077E+01
    -23.253  0.8576E+01  0.5096E+01
    -23.134  0.2364E+02  0.7911E+01
    -23.015  0.2132E+02  0.1045E+02
    -22.897  0.2110E+02  0.1295E+02
    -22.778  0.1592E+02  0.1485E+02
    -22.659  0.1921E+02  0.1713E+02
    -22.540  0.1876E+02  0.1937E+02
    -22.421  0.1938E+02  0.2167E+02
    -22.302  0.2052E+02  0.2411E+02
    -22.184  0.2518E+02  0.2711E+02
    -22.065  0.2299E+02  0.2984E+02
    -21.946  0.1946E+02  0.3216E+02
    -21.827  0.1818E+02  0.3433E+02
    -21.708  0.1731E+02  0.3638E+02
    -21.589  0.1777E+02  0.3850E+02
    -21.470  0.2132E+02  0.4104E+02
    -21.352  0.1883E+02  0.4328E+02
    -21.233  0.1797E+02  0.4542E+02
    -21.114  0.1706E+02  0.4745E+02
    -20.995  0.1568E+02  0.4932E+02
    -20.876  0.1737E+02  0.5138E+02
    -20.757  0.1794E+02  0.5351E+02
    -20.639  0.1144E+02  0.5487E+02
    -20.520  0.1532E+02  0.5670E+02
    -20.401  0.9254E+01  0.5780E+02
    -20.282  0.2677E+01  0.5812E+02
    -20.163  0.6536E+01  0.5890E+02
    -20.044  0.7534E+01  0.5980E+02
    -19.925  0.1538E+01  0.5998E+02
    -19.807  0.1721E+00  0.6000E+02
    -19.688  0.1445E+00  0.6002E+02
    -19.569  0.1412E+01  0.6019E+02
    -19.450  0.7279E+01  0.6105E+02
    -19.331  0.6678E+01  0.6185E+02
    -19.212  0.1170E+01  0.6198E+02
    -19.093  0.1176E+00  0.6200E+02
    -18.975  0.0000E+00  0.6200E+02
    -18.856  0.0000E+00  0.6200E+02
    -18.737  0.0000E+00  0.6200E+02
    -18.618  0.0000E+00  0.6200E+02
    -18.499  0.0000E+00  0.6200E+02
    -18.380  0.0000E+00  0.6200E+02
    -18.262  0.0000E+00  0.6200E+02
    -18.143  0.0000E+00  0.6200E+02
    -18.024  0.0000E+00  0.6200E+02
    -17.905  0.0000E+00  0.6200E+02
    -17.786  0.0000E+00  0.6200E+02
    -17.667  0.0000E+00  0.6200E+02
    -17.548  0.0000E+00  0.6200E+02
    -17.430  0.0000E+00  0.6200E+02
    -17.311  0.0000E+00  0.6200E+02
    -17.192  0.0000E+00  0.6200E+02
    -17.073  0.0000E+00  0.6200E+02
    -16.954  0.0000E+00  0.6200E+02
    -16.835  0.0000E+00  0.6200E+02
    -16.717  0.0000E+00  0.6200E+02
    -16.598  0.0000E+00  0.6200E+02
    -16.479  0.0000E+00  0.6200E+02
    -16.360  0.0000E+00  0.6200E+02
    -16.241  0.0000E+00  0.6200E+02
    -16.122  0.0000E+00  0.6200E+02
    -16.003  0.0000E+00  0.6200E+02
    -15.885  0.0000E+00  0.6200E+02
    -15.766  0.0000E+00  0.6200E+02
    -15.647  0.0000E+00  0.6200E+02
    -15.528  0.0000E+00  0.6200E+02
    -15.409  0.0000E+00  0.6200E+02
    -15.290  0.0000E+00  0.6200E+02
    -15.171  0.0000E+00  0.6200E+02
    -15.053  0.0000E+00  0.6200E+02
    -14.934  0.0000E+00  0.6200E+02
    -14.815  0.0000E+00  0.6200E+02
    -14.696  0.0000E+00  0.6200E+02
    -14.577  0.0000E+00  0.6200E+02
    -14.458  0.0000E+00  0.6200E+02
    -14.340  0.0000E+00  0.6200E+02
    -14.221  0.0000E+00  0.6200E+02
    -14.102  0.0000E+00  0.6200E+02
    -13.983  0.0000E+00  0.6200E+02
    -13.864  0.0000E+00  0.6200E+02
    -13.745  0.0000E+00  0.6200E+02
    -13.626  0.0000E+00  0.6200E+02
    -13.508  0.0000E+00  0.6200E+02
    -13.389  0.0000E+00  0.6200E+02
    -13.270  0.0000E+00  0.6200E+02
    -13.151  0.0000E+00  0.6200E+02
    -13.032  0.0000E+00  0.6200E+02
    -12.913  0.0000E+00  0.6200E+02
    -12.795  0.0000E+00  0.6200E+02
    -12.676  0.0000E+00  0.6200E+02
    -12.557  0.0000E+00  0.6200E+02
    -12.438  0.0000E+00  0.6200E+02
    -12.319  0.2173E-02  0.6200E+02
    -12.200  0.2209E-01  0.6200E+02
    -12.081  0.2338E+00  0.6203E+02
    -11.963  0.2183E+01  0.6229E+02
    -11.844  0.9281E+01  0.6339E+02
    -11.725  0.1124E+02  0.6473E+02
    -11.606  0.8754E+01  0.6577E+02
    -11.487  0.2667E+01  0.6609E+02
    -11.368  0.5793E+01  0.6678E+02
    -11.249  0.9121E+01  0.6786E+02
    -11.131  0.7999E+01  0.6881E+02
    -11.012  0.8408E+01  0.6981E+02
    -10.893  0.4813E+01  0.7039E+02
    -10.774  0.1510E+02  0.7218E+02
    -10.655  0.2584E+02  0.7525E+02
    -10.536  0.2499E+02  0.7822E+02
    -10.418  0.1879E+02  0.8046E+02
    -10.299  0.1760E+02  0.8255E+02
    -10.180  0.2158E+02  0.8512E+02
    -10.061  0.1908E+02  0.8739E+02
     -9.942  0.2783E+02  0.9070E+02
     -9.823  0.2794E+02  0.9403E+02
     -9.704  0.1968E+02  0.9637E+02
     -9.586  0.2093E+02  0.9886E+02
     -9.467  0.1657E+02  0.1008E+03
     -9.348  0.2027E+02  0.1032E+03
     -9.229  0.1655E+02  0.1052E+03
     -9.110  0.2332E+02  0.1080E+03
     -8.991  0.2069E+02  0.1105E+03
     -8.873  0.1455E+02  0.1122E+03
     -8.754  0.1538E+02  0.1140E+03
     -8.635  0.1755E+02  0.1161E+03
     -8.516  0.2083E+02  0.1186E+03
     -8.397  0.2058E+02  0.1210E+03
     -8.278  0.1921E+02  0.1233E+03
     -8.159  0.1802E+02  0.1255E+03
     -8.041  0.1142E+02  0.1268E+03
     -7.922  0.1053E+02  0.1281E+03
     -7.803  0.1443E+02  0.1298E+03
     -7.684  0.1879E+02  0.1320E+03
     -7.565  0.1772E+02  0.1341E+03
     -7.446  0.2422E+02  0.1370E+03
     -7.327  0.2311E+02  0.1398E+03
     -7.209  0.1890E+02  0.1420E+03
     -7.090  0.2004E+02  0.1444E+03
     -6.971  0.2077E+02  0.1469E+03
     -6.852  0.2079E+02  0.1494E+03
     -6.733  0.1938E+02  0.1517E+03
     -6.614  0.1958E+02  0.1540E+03
     -6.496  0.1913E+02  0.1563E+03
     -6.377  0.1857E+02  0.1585E+03
     -6.258  0.1662E+02  0.1605E+03
     -6.139  0.2115E+02  0.1630E+03
     -6.020  0.2606E+02  0.1661E+03
     -5.901  0.2710E+02  0.1693E+03
     -5.782  0.2493E+02  0.1723E+03
     -5.664  0.2300E+02  0.1750E+03
     -5.545  0.2415E+02  0.1779E+03
     -5.426  0.2391E+02  0.1807E+03
     -5.307  0.2664E+02  0.1839E+03
     -5.188  0.2959E+02  0.1874E+03
     -5.069  0.2035E+02  0.1898E+03
     -4.951  0.1694E+02  0.1919E+03
     -4.832  0.2300E+02  0.1946E+03
     -4.713  0.2638E+02  0.1977E+03
     -4.594  0.2386E+02  0.2006E+03
     -4.475  0.3375E+02  0.2046E+03
     -4.356  0.4910E+02  0.2104E+03
     -4.237  0.4683E+02  0.2160E+03
     -4.119  0.3437E+02  0.2201E+03
     -4.000  0.3378E+02  0.2241E+03
     -3.881  0.3143E+02  0.2279E+03
     -3.762  0.3032E+02  0.2315E+03
     -3.643  0.3598E+02  0.2357E+03
     -3.524  0.3123E+02  0.2395E+03
     -3.405  0.2320E+02  0.2422E+03
     -3.287  0.1362E+02  0.2439E+03
     -3.168  0.9474E+01  0.2450E+03
     -3.049  0.7132E+01  0.2458E+03
     -2.930  0.1726E+01  0.2460E+03
     -2.811  0.3975E+01  0.2465E+03
     -2.692  0.8935E+01  0.2476E+03
     -2.574  0.3109E+01  0.2480E+03
     -2.455  0.3639E+00  0.2480E+03
     -2.336  0.0000E+00  0.2480E+03
     -2.217  0.0000E+00  0.2480E+03
     -2.098  0.0000E+00  0.2480E+03
     -1.979  0.0000E+00  0.2480E+03
     -1.860  0.0000E+00  0.2480E+03
     -1.742  0.0000E+00  0.2480E+03
     -1.623  0.0000E+00  0.2480E+03
     -1.504  0.0000E+00  0.2480E+03
     -1.385  0.0000E+00  0.2480E+03
     -1.266  0.0000E+00  0.2480E+03
     -1.147  0.0000E+00  0.2480E+03
     -1.029  0.0000E+00  0.2480E+03
     -0.910  0.0000E+00  0.2480E+03
     -0.791  0.0000E+00  0.2480E+03
     -0.672  0.0000E+00  0.2480E+03
     -0.553  0.0000E+00  0.2480E+03
     -0.434  0.0000E+00  0.2480E+03
     -0.315  0.0000E+00  0.2480E+03
     -0.197  0.0000E+00  0.2480E+03
     -0.078  0.0000E+00  0.2480E+03
      0.041  0.0000E+00  0.2480E+03
      0.160  0.1629E-04  0.2480E+03
      0.279  0.3162E-03  0.2480E+03
      0.398  0.3636E-02  0.2480E+03
      0.517  0.3789E-01  0.2480E+03
      0.635  0.3026E+00  0.2480E+03
      0.754  0.1154E+01  0.2482E+03
      0.873  0.2397E+01  0.2485E+03
      0.992  0.3894E+01  0.2489E+03
      1.111  0.4490E+01  0.2495E+03
      1.230  0.3220E+01  0.2498E+03
      1.348  0.1169E+01  0.2500E+03
      1.467  0.4892E+00  0.2500E+03
      1.586  0.1383E+01  0.2502E+03
      1.705  0.3551E+01  0.2506E+03
      1.824  0.5580E+01  0.2513E+03
      1.943  0.5405E+01  0.2519E+03
      2.062  0.5516E+01  0.2526E+03
      2.180  0.6068E+01  0.2533E+03
      2.299  0.6020E+01  0.2540E+03
      2.418  0.7515E+01  0.2549E+03
      2.537  0.8417E+01  0.2559E+03
      2.656  0.6763E+01  0.2567E+03
      2.775  0.6638E+01  0.2575E+03
      2.893  0.6804E+01  0.2583E+03
      3.012  0.6719E+01  0.2591E+03
      3.131  0.8350E+01  0.2601E+03
      3.250  0.9536E+01  0.2613E+03
      3.369  0.1048E+02  0.2625E+03
      3.488  0.1029E+02  0.2637E+03
      3.607  0.1029E+02  0.2650E+03
      3.725  0.1079E+02  0.2662E+03
      3.844  0.1224E+02  0.2677E+03
      3.963  0.1323E+02  0.2693E+03
      4.082  0.1365E+02  0.2709E+03
      4.201  0.1395E+02  0.2726E+03
      4.320  0.1439E+02  0.2743E+03
      4.439  0.1440E+02  0.2760E+03
      4.557  0.1415E+02  0.2777E+03
      4.676  0.1429E+02  0.2794E+03
      4.795  0.1471E+02  0.2811E+03
      4.914  0.1611E+02  0.2830E+03
      5.033  0.1764E+02  0.2851E+03
      5.152  0.1950E+02  0.2874E+03
      5.270  0.1953E+02  0.2898E+03
      5.389  0.1886E+02  0.2920E+03
      5.508  0.1854E+02  0.2942E+03
      5.627  0.2049E+02  0.2967E+03
      5.746  0.2101E+02  0.2992E+03
      5.865  0.2207E+02  0.3018E+03
      5.984  0.2488E+02  0.3047E+03
      6.102  0.2638E+02  0.3079E+03
      6.221  0.2625E+02  0.3110E+03
      6.340  0.2659E+02  0.3142E+03
      6.459  0.2618E+02  0.3173E+03
      6.578  0.2532E+02  0.3203E+03
      6.697  0.2527E+02  0.3233E+03
      6.815  0.2623E+02  0.3264E+03
      6.934  0.2442E+02  0.3293E+03
      7.053  0.2244E+02  0.3320E+03
      7.172  0.2114E+02  0.3345E+03
      7.291  0.1952E+02  0.3368E+03
      7.410  0.1788E+02  0.3390E+03
      7.529  0.1542E+02  0.3408E+03
      7.647  0.1239E+02  0.3423E+03
      7.766  0.8851E+01  0.3433E+03
      7.885  0.4204E+01  0.3438E+03
      8.004  0.1102E+01  0.3440E+03
      8.123  0.1656E+00  0.3440E+03
      8.242  0.2902E-01  0.3440E+03
      8.361  0.5661E-02  0.3440E+03
      8.479  0.6108E-03  0.3440E+03
      8.598  0.0000E+00  0.3440E+03
      8.717  0.0000E+00  0.3440E+03
      8.836  0.0000E+00  0.3440E+03
      8.955  0.0000E+00  0.3440E+03
      9.074  0.0000E+00  0.3440E+03
      9.192  0.0000E+00  0.3440E+03
      9.311  0.0000E+00  0.3440E+03
      9.430  0.0000E+00  0.3440E+03
      9.549  0.0000E+00  0.3440E+03
      9.668  0.0000E+00  0.3440E+03
      9.787  0.0000E+00  0.3440E+03
