Loading vasp/5.4.4-mpi-cuda
  Loading requirement: gcc/8.5.0 intel-compilers/19.0.4 cuda/10.1.1
    intel-mpi/2019.4
 running on   40 total cores
 distrk:  each k-point on   40 cores,    1 groups
 distr:  one band on   20 cores,    2 groups
 using from now: INCAR     
 vasp.5.4.4.18Apr17-6-g9f103f2a35 (build Dec 06 2019 17:20:26) complex          
  
 POSCAR found type information on POSCAR  O  H 
 POSCAR found :  2 types and      93 ions
 scaLAPACK will be used

 ----------------------------------------------------------------------------- 
|                                                                             |
|           W    W    AA    RRRRR   N    N  II  N    N   GGGG   !!!           |
|           W    W   A  A   R    R  NN   N  II  NN   N  G    G  !!!           |
|           W    W  A    A  R    R  N N  N  II  N N  N  G       !!!           |
|           W WW W  AAAAAA  RRRRR   N  N N  II  N  N N  G  GGG   !            |
|           WW  WW  A    A  R   R   N   NN  II  N   NN  G    G                |
|           W    W  A    A  R    R  N    N  II  N    N   GGGG   !!!           |
|                                                                             |
|      For optimal performance we recommend to set                            |
|        NCORE= 4 - approx SQRT( number of cores)                             |
|      NCORE specifies how many cores store one orbital (NPAR=cpu/NCORE).     |
|      This setting can  greatly improve the performance of VASP for DFT.     |
|      The default,   NCORE=1            might be grossly inefficient         |
|      on modern multi-core architectures or massively parallel machines.     |
|      Do your own testing !!!!                                               |
|      Unfortunately you need to use the default for GW and RPA calculations. |
|      (for HF NCORE is supported but not extensively tested yet)             |
|                                                                             |
 ----------------------------------------------------------------------------- 

 LDA part: xc-table for Pade appr. of Perdew
 POSCAR, INCAR and KPOINTS ok, starting setup
 FFT: planning ...
 WAVECAR not read
 WARNING: chargedensity file is incomplete
 WARNING: random wavefunctions but no delay for mixing, default for NELMDL
 entering main loop
       N       E                     dE             d eps       ncg     rms          rms(c)
RMM:   1     0.332130212158E+04    0.33213E+04   -0.74373E+04 86688   0.878E+02
RMM:   2     0.105101635293E+04   -0.22703E+04   -0.24368E+04 86688   0.253E+02
RMM:   3     0.867885537357E+02   -0.96423E+03   -0.10259E+04 86688   0.187E+02
RMM:   4    -0.344350453543E+03   -0.43114E+03   -0.36708E+03 86688   0.130E+02
RMM:   5    -0.451528787713E+03   -0.10718E+03   -0.97713E+02 86688   0.685E+01
RMM:   6    -0.479118459454E+03   -0.27590E+02   -0.25176E+02 86688   0.353E+01
RMM:   7    -0.486444746740E+03   -0.73263E+01   -0.70140E+01 86688   0.180E+01
RMM:   8    -0.488642016544E+03   -0.21973E+01   -0.20702E+01 86688   0.960E+00
RMM:   9    -0.489504969273E+03   -0.86295E+00   -0.84727E+00221739   0.509E+00
RMM:  10    -0.489624479691E+03   -0.11951E+00   -0.11257E+00235358   0.148E+00
RMM:  11    -0.489626702640E+03   -0.22229E-02   -0.38112E-02221798   0.314E-01
RMM:  12    -0.489627333480E+03   -0.63084E-03   -0.61881E-03222905   0.813E-02    0.397E+01
RMM:  13    -0.448260083951E+03    0.41367E+02   -0.14644E+02209215   0.243E+01    0.152E+01
RMM:  14    -0.447044566314E+03    0.12155E+01   -0.54283E+00217949   0.416E+00    0.961E+00
RMM:  15    -0.446541221186E+03    0.50335E+00   -0.16764E+00214945   0.357E+00    0.136E+00
RMM:  16    -0.446493986199E+03    0.47235E-01   -0.29469E-01221760   0.970E-01    0.534E-01
RMM:  17    -0.446500016938E+03   -0.60307E-02   -0.44931E-02209937   0.407E-01    0.322E-01
RMM:  18    -0.446496444559E+03    0.35724E-02   -0.10260E-02217673   0.219E-01    0.922E-02
RMM:  19    -0.446495291821E+03    0.11527E-02   -0.27621E-03218779   0.863E-02    0.361E-02
RMM:  20    -0.446495101865E+03    0.18996E-03   -0.59457E-04220271   0.378E-02    0.206E-02
RMM:  21    -0.446495072788E+03    0.29077E-04   -0.12270E-04219526   0.187E-02    0.120E-02
RMM:  22    -0.446495066081E+03    0.67065E-05   -0.29240E-05215843   0.104E-02    0.357E-03
RMM:  23    -0.446495065624E+03    0.45765E-06   -0.26298E-06170535   0.305E-03
   1 F= -.44956042E+03 E0= -.44956042E+03  d E =-.326463E-10
