  72  72   0   0
  0.1278396E+03  0.1469770E-08  0.1469770E-08  0.4920040E-08  0.5000000E-15
  1.000000000000000E-004
  CAR 
 ice                                     
      1.96223976    -26.75445021  301     -5.31263167      1.00000000
    -26.754  0.0000E+00  0.0000E+00
    -26.659  0.0000E+00  0.0000E+00
    -26.563  0.0000E+00  0.0000E+00
    -26.467  0.0000E+00  0.0000E+00
    -26.372  0.0000E+00  0.0000E+00
    -26.276  0.0000E+00  0.0000E+00
    -26.180  0.0000E+00  0.0000E+00
    -26.084  0.0000E+00  0.0000E+00
    -25.989  0.0000E+00  0.0000E+00
    -25.893  0.1501E-05  0.1437E-06
    -25.797  0.1358E-04  0.1444E-05
    -25.702  0.9581E-04  0.1062E-04
    -25.606  0.6334E-03  0.7124E-04
    -25.510  0.3797E-02  0.4347E-03
    -25.414  0.1503E-01  0.1874E-02
    -25.319  0.2947E-01  0.4695E-02
    -25.223  0.3563E-01  0.8105E-02
    -25.127  0.4147E-01  0.1207E-01
    -25.031  0.5280E-01  0.1713E-01
    -24.936  0.4716E-01  0.2165E-01
    -24.840  0.1963E-01  0.2353E-01
    -24.744  0.4233E-02  0.2394E-01
    -24.649  0.1442E-02  0.2409E-01
    -24.553  0.5273E-02  0.2460E-01
    -24.457  0.2259E-01  0.2676E-01
    -24.361  0.4783E-01  0.3134E-01
    -24.266  0.4880E-01  0.3601E-01
    -24.170  0.3712E-01  0.3956E-01
    -24.074  0.3155E-01  0.4258E-01
    -23.979  0.2871E-01  0.4534E-01
    -23.883  0.1924E-01  0.4718E-01
    -23.787  0.6887E-02  0.4785E-01
    -23.691  0.1335E-02  0.4798E-01
    -23.596  0.1783E-03  0.4800E-01
    -23.500  0.5018E-05  0.4800E-01
    -23.404  0.0000E+00  0.4800E-01
    -23.308  0.0000E+00  0.4800E-01
    -23.213  0.0000E+00  0.4800E-01
    -23.117  0.0000E+00  0.4800E-01
    -23.021  0.0000E+00  0.4800E-01
    -22.926  0.0000E+00  0.4800E-01
    -22.830  0.0000E+00  0.4800E-01
    -22.734  0.0000E+00  0.4800E-01
    -22.638  0.0000E+00  0.4800E-01
    -22.543  0.0000E+00  0.4800E-01
    -22.447  0.0000E+00  0.4800E-01
    -22.351  0.0000E+00  0.4800E-01
    -22.256  0.0000E+00  0.4800E-01
    -22.160  0.0000E+00  0.4800E-01
    -22.064  0.0000E+00  0.4800E-01
    -21.968  0.0000E+00  0.4800E-01
    -21.873  0.0000E+00  0.4800E-01
    -21.777  0.0000E+00  0.4800E-01
    -21.681  0.0000E+00  0.4800E-01
    -21.585  0.0000E+00  0.4800E-01
    -21.490  0.0000E+00  0.4800E-01
    -21.394  0.0000E+00  0.4800E-01
    -21.298  0.0000E+00  0.4800E-01
    -21.203  0.0000E+00  0.4800E-01
    -21.107  0.0000E+00  0.4800E-01
    -21.011  0.0000E+00  0.4800E-01
    -20.915  0.0000E+00  0.4800E-01
    -20.820  0.0000E+00  0.4800E-01
    -20.724  0.0000E+00  0.4800E-01
    -20.628  0.0000E+00  0.4800E-01
    -20.533  0.0000E+00  0.4800E-01
    -20.437  0.0000E+00  0.4800E-01
    -20.341  0.0000E+00  0.4800E-01
    -20.245  0.0000E+00  0.4800E-01
    -20.150  0.0000E+00  0.4800E-01
    -20.054  0.0000E+00  0.4800E-01
    -19.958  0.0000E+00  0.4800E-01
    -19.862  0.0000E+00  0.4800E-01
    -19.767  0.0000E+00  0.4800E-01
    -19.671  0.0000E+00  0.4800E-01
    -19.575  0.0000E+00  0.4800E-01
    -19.480  0.0000E+00  0.4800E-01
    -19.384  0.0000E+00  0.4800E-01
    -19.288  0.0000E+00  0.4800E-01
    -19.192  0.0000E+00  0.4800E-01
    -19.097  0.0000E+00  0.4800E-01
    -19.001  0.0000E+00  0.4800E-01
    -18.905  0.0000E+00  0.4800E-01
    -18.809  0.0000E+00  0.4800E-01
    -18.714  0.0000E+00  0.4800E-01
    -18.618  0.0000E+00  0.4800E-01
    -18.522  0.0000E+00  0.4800E-01
    -18.427  0.0000E+00  0.4800E-01
    -18.331  0.0000E+00  0.4800E-01
    -18.235  0.0000E+00  0.4800E-01
    -18.139  0.0000E+00  0.4800E-01
    -18.044  0.0000E+00  0.4800E-01
    -17.948  0.0000E+00  0.4800E-01
    -17.852  0.0000E+00  0.4800E-01
    -17.757  0.0000E+00  0.4800E-01
    -17.661  0.0000E+00  0.4800E-01
    -17.565  0.0000E+00  0.4800E-01
    -17.469  0.0000E+00  0.4800E-01
    -17.374  0.0000E+00  0.4800E-01
    -17.278  0.0000E+00  0.4800E-01
    -17.182  0.0000E+00  0.4800E-01
    -17.086  0.0000E+00  0.4800E-01
    -16.991  0.0000E+00  0.4800E-01
    -16.895  0.0000E+00  0.4800E-01
    -16.799  0.0000E+00  0.4800E-01
    -16.704  0.0000E+00  0.4800E-01
    -16.608  0.0000E+00  0.4800E-01
    -16.512  0.0000E+00  0.4800E-01
    -16.416  0.0000E+00  0.4800E-01
    -16.321  0.0000E+00  0.4800E-01
    -16.225  0.0000E+00  0.4800E-01
    -16.129  0.0000E+00  0.4800E-01
    -16.034  0.0000E+00  0.4800E-01
    -15.938  0.0000E+00  0.4800E-01
    -15.842  0.0000E+00  0.4800E-01
    -15.746  0.0000E+00  0.4800E-01
    -15.651  0.0000E+00  0.4800E-01
    -15.555  0.0000E+00  0.4800E-01
    -15.459  0.0000E+00  0.4800E-01
    -15.363  0.0000E+00  0.4800E-01
    -15.268  0.0000E+00  0.4800E-01
    -15.172  0.0000E+00  0.4800E-01
    -15.076  0.0000E+00  0.4800E-01
    -14.981  0.0000E+00  0.4800E-01
    -14.885  0.0000E+00  0.4800E-01
    -14.789  0.0000E+00  0.4800E-01
    -14.693  0.0000E+00  0.4800E-01
    -14.598  0.0000E+00  0.4800E-01
    -14.502  0.0000E+00  0.4800E-01
    -14.406  0.0000E+00  0.4800E-01
    -14.311  0.0000E+00  0.4800E-01
    -14.215  0.0000E+00  0.4800E-01
    -14.119  0.0000E+00  0.4800E-01
    -14.023  0.0000E+00  0.4800E-01
    -13.928  0.0000E+00  0.4800E-01
    -13.832  0.0000E+00  0.4800E-01
    -13.736  0.0000E+00  0.4800E-01
    -13.640  0.0000E+00  0.4800E-01
    -13.545  0.7517E-05  0.4800E-01
    -13.449  0.6321E-04  0.4801E-01
    -13.353  0.4124E-03  0.4805E-01
    -13.258  0.2744E-02  0.4831E-01
    -13.162  0.1664E-01  0.4990E-01
    -13.066  0.6505E-01  0.5613E-01
    -12.970  0.9625E-01  0.6534E-01
    -12.875  0.5379E-01  0.7049E-01
    -12.779  0.1639E-01  0.7206E-01
    -12.683  0.1758E-01  0.7374E-01
    -12.588  0.5205E-01  0.7874E-01
    -12.492  0.8845E-01  0.8721E-01
    -12.396  0.6711E-01  0.9363E-01
    -12.300  0.2050E-01  0.9559E-01
    -12.205  0.3566E-02  0.9594E-01
    -12.109  0.4272E-03  0.9599E-01
    -12.013  0.0000E+00  0.9600E-01
    -11.917  0.0000E+00  0.9600E-01
    -11.822  0.0000E+00  0.9600E-01
    -11.726  0.0000E+00  0.9600E-01
    -11.630  0.0000E+00  0.9600E-01
    -11.535  0.0000E+00  0.9600E-01
    -11.439  0.1327E-06  0.9600E-01
    -11.343  0.1583E-05  0.9600E-01
    -11.247  0.9907E-05  0.9600E-01
    -11.152  0.6788E-04  0.9601E-01
    -11.056  0.4325E-03  0.9605E-01
    -10.960  0.2148E-02  0.9625E-01
    -10.865  0.6184E-02  0.9685E-01
    -10.769  0.8311E-02  0.9764E-01
    -10.673  0.1040E-01  0.9864E-01
    -10.577  0.1199E-01  0.9979E-01
    -10.482  0.1038E-01  0.1008E+00
    -10.386  0.1532E-01  0.1022E+00
    -10.290  0.1446E-01  0.1036E+00
    -10.194  0.1461E-01  0.1050E+00
    -10.099  0.2046E-01  0.1070E+00
    -10.003  0.2130E-01  0.1090E+00
     -9.907  0.2748E-01  0.1117E+00
     -9.812  0.2989E-01  0.1145E+00
     -9.716  0.2317E-01  0.1167E+00
     -9.620  0.1666E-01  0.1183E+00
     -9.524  0.1104E-01  0.1194E+00
     -9.429  0.4572E-02  0.1198E+00
     -9.333  0.1370E-02  0.1200E+00
     -9.237  0.3637E-03  0.1200E+00
     -9.142  0.8718E-03  0.1201E+00
     -9.046  0.3614E-02  0.1204E+00
     -8.950  0.1001E-01  0.1214E+00
     -8.854  0.1843E-01  0.1232E+00
     -8.759  0.2692E-01  0.1257E+00
     -8.663  0.3418E-01  0.1290E+00
     -8.567  0.2982E-01  0.1319E+00
     -8.471  0.2526E-01  0.1343E+00
     -8.376  0.1979E-01  0.1362E+00
     -8.280  0.1767E-01  0.1379E+00
     -8.184  0.1619E-01  0.1394E+00
     -8.089  0.1218E-01  0.1406E+00
     -7.993  0.1269E-01  0.1418E+00
     -7.897  0.9066E-02  0.1427E+00
     -7.801  0.7860E-02  0.1434E+00
     -7.706  0.4316E-02  0.1439E+00
     -7.610  0.1425E-02  0.1440E+00
     -7.514  0.1386E-02  0.1441E+00
     -7.419  0.7339E-02  0.1448E+00
     -7.323  0.3589E-01  0.1483E+00
     -7.227  0.8932E-01  0.1568E+00
     -7.131  0.8306E-01  0.1648E+00
     -7.036  0.2830E-01  0.1675E+00
     -6.940  0.7839E-02  0.1682E+00
     -6.844  0.1629E-01  0.1698E+00
     -6.748  0.5197E-01  0.1748E+00
     -6.653  0.8697E-01  0.1831E+00
     -6.557  0.6869E-01  0.1897E+00
     -6.461  0.2015E-01  0.1916E+00
     -6.366  0.3397E-02  0.1919E+00
     -6.270  0.4239E-03  0.1920E+00
     -6.174  0.0000E+00  0.1920E+00
     -6.078  0.0000E+00  0.1920E+00
     -5.983  0.0000E+00  0.1920E+00
     -5.887  0.0000E+00  0.1920E+00
     -5.791  0.0000E+00  0.1920E+00
     -5.696  0.0000E+00  0.1920E+00
     -5.600  0.0000E+00  0.1920E+00
     -5.504  0.0000E+00  0.1920E+00
     -5.408  0.0000E+00  0.1920E+00
     -5.313  0.0000E+00  0.1920E+00
     -5.217  0.0000E+00  0.1920E+00
     -5.121  0.0000E+00  0.1920E+00
     -5.025  0.0000E+00  0.1920E+00
     -4.930  0.0000E+00  0.1920E+00
     -4.834  0.0000E+00  0.1920E+00
     -4.738  0.0000E+00  0.1920E+00
     -4.643  0.0000E+00  0.1920E+00
     -4.547  0.0000E+00  0.1920E+00
     -4.451  0.0000E+00  0.1920E+00
     -4.355  0.0000E+00  0.1920E+00
     -4.260  0.0000E+00  0.1920E+00
     -4.164  0.0000E+00  0.1920E+00
     -4.068  0.0000E+00  0.1920E+00
     -3.973  0.0000E+00  0.1920E+00
     -3.877  0.0000E+00  0.1920E+00
     -3.781  0.0000E+00  0.1920E+00
     -3.685  0.0000E+00  0.1920E+00
     -3.590  0.0000E+00  0.1920E+00
     -3.494  0.0000E+00  0.1920E+00
     -3.398  0.0000E+00  0.1920E+00
     -3.302  0.0000E+00  0.1920E+00
     -3.207  0.0000E+00  0.1920E+00
     -3.111  0.0000E+00  0.1920E+00
     -3.015  0.0000E+00  0.1920E+00
     -2.920  0.0000E+00  0.1920E+00
     -2.824  0.0000E+00  0.1920E+00
     -2.728  0.4674E-06  0.1920E+00
     -2.632  0.4755E-05  0.1920E+00
     -2.537  0.3002E-04  0.1920E+00
     -2.441  0.1973E-03  0.1920E+00
     -2.345  0.1084E-02  0.1921E+00
     -2.250  0.3790E-02  0.1925E+00
     -2.154  0.7000E-02  0.1932E+00
     -2.058  0.5797E-02  0.1937E+00
     -1.962  0.8037E-02  0.1945E+00
     -1.867  0.1014E-01  0.1955E+00
     -1.771  0.6601E-02  0.1961E+00
     -1.675  0.4121E-02  0.1965E+00
     -1.579  0.1046E-01  0.1975E+00
     -1.484  0.1541E-01  0.1990E+00
     -1.388  0.1465E-01  0.2004E+00
     -1.292  0.1412E-01  0.2017E+00
     -1.197  0.1691E-01  0.2033E+00
     -1.101  0.2409E-01  0.2056E+00
     -1.005  0.2660E-01  0.2082E+00
     -0.909  0.3040E-01  0.2111E+00
     -0.814  0.2970E-01  0.2139E+00
     -0.718  0.2969E-01  0.2168E+00
     -0.622  0.2650E-01  0.2193E+00
     -0.527  0.3500E-01  0.2227E+00
     -0.431  0.3673E-01  0.2262E+00
     -0.335  0.3622E-01  0.2297E+00
     -0.239  0.4125E-01  0.2336E+00
     -0.144  0.4753E-01  0.2382E+00
     -0.048  0.4152E-01  0.2422E+00
      0.048  0.4427E-01  0.2464E+00
      0.144  0.4626E-01  0.2508E+00
      0.239  0.3498E-01  0.2542E+00
      0.335  0.3868E-01  0.2579E+00
      0.431  0.4695E-01  0.2624E+00
      0.526  0.3533E-01  0.2658E+00
      0.622  0.1442E-01  0.2672E+00
      0.718  0.6325E-02  0.2678E+00
      0.814  0.2037E-02  0.2680E+00
      0.909  0.3340E-03  0.2680E+00
      1.005  0.4986E-04  0.2680E+00
      1.101  0.0000E+00  0.2680E+00
      1.196  0.0000E+00  0.2680E+00
      1.292  0.0000E+00  0.2680E+00
      1.388  0.0000E+00  0.2680E+00
      1.484  0.0000E+00  0.2680E+00
      1.579  0.0000E+00  0.2680E+00
      1.675  0.0000E+00  0.2680E+00
      1.771  0.0000E+00  0.2680E+00
      1.867  0.0000E+00  0.2680E+00
      1.962  0.0000E+00  0.2680E+00
