Loading vasp/5.4.4-mpi-cuda
  Loading requirement: gcc/8.5.0 intel-compilers/19.0.4 cuda/10.1.1
    intel-mpi/2019.4
 running on   40 total cores
 distrk:  each k-point on   40 cores,    1 groups
 distr:  one band on   20 cores,    2 groups
 using from now: INCAR     
 vasp.5.4.4.18Apr17-6-g9f103f2a35 (build Dec 06 2019 17:20:26) complex          
  
 POSCAR found type information on POSCAR  H  O 
 POSCAR found :  2 types and      72 ions
 scaLAPACK will be used

 ----------------------------------------------------------------------------- 
|                                                                             |
|           W    W    AA    RRRRR   N    N  II  N    N   GGGG   !!!           |
|           W    W   A  A   R    R  NN   N  II  NN   N  G    G  !!!           |
|           W    W  A    A  R    R  N N  N  II  N N  N  G       !!!           |
|           W WW W  AAAAAA  RRRRR   N  N N  II  N  N N  G  GGG   !            |
|           WW  WW  A    A  R   R   N   NN  II  N   NN  G    G                |
|           W    W  A    A  R    R  N    N  II  N    N   GGGG   !!!           |
|                                                                             |
|      For optimal performance we recommend to set                            |
|        NCORE= 4 - approx SQRT( number of cores)                             |
|      NCORE specifies how many cores store one orbital (NPAR=cpu/NCORE).     |
|      This setting can  greatly improve the performance of VASP for DFT.     |
|      The default,   NCORE=1            might be grossly inefficient         |
|      on modern multi-core architectures or massively parallel machines.     |
|      Do your own testing !!!!                                               |
|      Unfortunately you need to use the default for GW and RPA calculations. |
|      (for HF NCORE is supported but not extensively tested yet)             |
|                                                                             |
 ----------------------------------------------------------------------------- 

 LDA part: xc-table for Pade appr. of Perdew
 POSCAR, INCAR and KPOINTS ok, starting setup
 FFT: planning ...
 WAVECAR not read
 WARNING: chargedensity file is incomplete
 WARNING: random wavefunctions but no delay for mixing, default for NELMDL
 entering main loop
       N       E                     dE             d eps       ncg     rms          rms(c)
RMM:   1     0.328106888332E+04    0.32811E+04   -0.28027E+04   402   0.600E+02
RMM:   2     0.206779701491E+04   -0.12133E+04   -0.13582E+04   402   0.139E+02
RMM:   3     0.167104529836E+04   -0.39675E+03   -0.88899E+03   402   0.139E+02
RMM:   4     0.925494311535E+03   -0.74555E+03   -0.72735E+03   402   0.146E+02
RMM:   5     0.355388611461E+03   -0.57011E+03   -0.54469E+03   402   0.141E+02
RMM:   6     0.129733465083E+02   -0.34242E+03   -0.30987E+03   402   0.111E+02
RMM:   7    -0.214247269261E+03   -0.22722E+03   -0.19475E+03   402   0.776E+01
RMM:   8    -0.323664574693E+03   -0.10942E+03   -0.93441E+02   402   0.481E+01
RMM:   9    -0.385356722130E+03   -0.61692E+02   -0.51159E+02   812   0.283E+01
RMM:  10    -0.389320484082E+03   -0.39638E+01   -0.37656E+01   833   0.866E+00
RMM:  11    -0.389514352770E+03   -0.19387E+00   -0.20623E+00   823   0.207E+00
RMM:  12    -0.389534308914E+03   -0.19956E-01   -0.21093E-01   867   0.524E-01    0.359E+01
RMM:  13    -0.352865016551E+03    0.36669E+02   -0.14301E+02   804   0.266E+01    0.137E+01
RMM:  14    -0.350703582248E+03    0.21614E+01   -0.96300E+00   805   0.555E+00    0.888E+00
RMM:  15    -0.349188531380E+03    0.15151E+01   -0.25798E+00   804   0.425E+00    0.153E+00
RMM:  16    -0.348990034366E+03    0.19850E+00   -0.73464E-01   805   0.150E+00    0.765E-01
RMM:  17    -0.348897035531E+03    0.92999E-01   -0.28338E-01   846   0.814E-01    0.927E-01
RMM:  18    -0.348876205482E+03    0.20830E-01   -0.94136E-02   804   0.712E-01    0.216E-01
RMM:  19    -0.348894778288E+03   -0.18573E-01   -0.31145E-02   804   0.348E-01    0.137E-01
RMM:  20    -0.348910979270E+03   -0.16201E-01   -0.69757E-03   808   0.137E-01    0.954E-02
RMM:  21    -0.348921119998E+03   -0.10141E-01   -0.47769E-03   804   0.983E-02    0.580E-02
RMM:  22    -0.348928129161E+03   -0.70092E-02   -0.23320E-03   839   0.861E-02    0.545E-02
RMM:  23    -0.348932645029E+03   -0.45159E-02   -0.48192E-04   804   0.413E-02    0.268E-02
RMM:  24    -0.348934719195E+03   -0.20742E-02   -0.37115E-04   804   0.337E-02    0.134E-02
RMM:  25    -0.348935387784E+03   -0.66859E-03   -0.46702E-05   772   0.112E-02    0.865E-03
RMM:  26    -0.348935941085E+03   -0.55330E-03   -0.33499E-05   768   0.966E-03    0.721E-03
RMM:  27    -0.348936010188E+03   -0.69102E-04   -0.14731E-05   772   0.712E-03    0.701E-03
RMM:  28    -0.348936078452E+03   -0.68264E-04   -0.31682E-06   598   0.353E-03    0.546E-03
RMM:  29    -0.348936083985E+03   -0.55335E-05   -0.27772E-06   601   0.342E-03    0.530E-03
RMM:  30    -0.348936110199E+03   -0.26214E-04   -0.41896E-07   516   0.212E-03    0.508E-03
RMM:  31    -0.348936107707E+03    0.24922E-05   -0.16297E-07   516   0.119E-03    0.503E-03
RMM:  32    -0.348936114491E+03   -0.67839E-05   -0.86239E-08   444   0.720E-04    0.503E-03
RMM:  33    -0.348936117116E+03   -0.26247E-05   -0.29112E-08   310   0.500E-04    0.503E-03
RMM:  34    -0.348936117343E+03   -0.22730E-06    0.00000E+00   228   0.423E-04
   1 F= -.35024555E+03 E0= -.35024555E+03  d E =-.350246E+03
 curvature:   0.00 expect dE= 0.000E+00 dE for cont linesearch  0.000E+00
 trial: gam= 0.00000 g(F)=  0.107E+02 g(S)=  0.000E+00 ort = 0.000E+00 (trialstep = 0.100E+01)
 search vector abs. value=  0.107E+02
 bond charge predicted
       N       E                     dE             d eps       ncg     rms          rms(c)
RMM:   1    -0.356755047279E+03   -0.78189E+01   -0.22223E+03   804   0.124E+02    0.846E+00
RMM:   2    -0.340146254215E+03    0.16609E+02   -0.29255E+01   853   0.115E+01    0.114E+01
RMM:   3    -0.349092601560E+03   -0.89463E+01   -0.30698E+01   804   0.116E+01    0.224E+01
RMM:   4    -0.338707446793E+03    0.10385E+02   -0.38608E+01   804   0.133E+01    0.991E+00
RMM:   5    -0.337495194258E+03    0.12123E+01   -0.16992E+01   804   0.865E+00    0.634E+00
RMM:   6    -0.336611980469E+03    0.88321E+00   -0.46126E+00   805   0.426E+00    0.197E+00
RMM:   7    -0.336732327539E+03   -0.12035E+00   -0.77818E-01   841   0.163E+00    0.132E+00
RMM:   8    -0.336718439016E+03    0.13889E-01   -0.38227E-01   804   0.130E+00    0.462E-01
RMM:   9    -0.336751251110E+03   -0.32812E-01   -0.16238E-01   889   0.705E-01    0.800E-01
RMM:  10    -0.336747724100E+03    0.35270E-02   -0.59879E-02   806   0.453E-01    0.287E-01
RMM:  11    -0.336762418651E+03   -0.14695E-01   -0.42329E-02   840   0.384E-01    0.243E-01
RMM:  12    -0.336773220842E+03   -0.10802E-01   -0.51788E-03   819   0.144E-01    0.287E-01
RMM:  13    -0.336776287279E+03   -0.30664E-02   -0.74649E-04   804   0.560E-02    0.234E-01
RMM:  14    -0.336777579513E+03   -0.12922E-02   -0.12568E-02   804   0.206E-01    0.448E-02
RMM:  15    -0.336778785652E+03   -0.12061E-02   -0.87709E-04   933   0.460E-02    0.726E-02
RMM:  16    -0.336779190770E+03   -0.40512E-03   -0.30274E-04   804   0.345E-02    0.317E-02
RMM:  17    -0.336779571637E+03   -0.38087E-03   -0.60040E-04   804   0.442E-02    0.249E-02
RMM:  18    -0.336779638847E+03   -0.67210E-04   -0.37571E-05   804   0.139E-02    0.129E-02
RMM:  19    -0.336779696989E+03   -0.58141E-04   -0.66970E-05   804   0.153E-02    0.982E-03
RMM:  20    -0.336779706099E+03   -0.91103E-05   -0.26439E-06   566   0.416E-03    0.738E-03
RMM:  21    -0.336779705192E+03    0.90715E-06   -0.53154E-06   661   0.442E-03
   2 F= -.33810880E+03 E0= -.33810880E+03  d E =0.121368E+02
 trial-energy change:   12.136754  1 .order   14.338485  -10.720389   39.397358
 step:   0.2653(harm=  0.2139)  dis= 0.02669  next Energy=  -351.708600 (dE=-0.146E+01)
 bond charge predicted
       N       E                     dE             d eps       ncg     rms          rms(c)
RMM:   1    -0.357168652425E+03   -0.20389E+02   -0.11610E+03   804   0.898E+01    0.851E+00
RMM:   2    -0.351458975359E+03    0.57097E+01   -0.21480E+01   804   0.107E+01    0.617E+00
RMM:   3    -0.350392573846E+03    0.10664E+01   -0.25464E+00   804   0.316E+00    0.270E+00
RMM:   4    -0.350261142565E+03    0.13143E+00   -0.20114E+00   804   0.248E+00    0.499E-01
RMM:   5    -0.350268799828E+03   -0.76573E-02   -0.97379E-02   827   0.545E-01    0.434E-01
RMM:   6    -0.350271267823E+03   -0.24680E-02   -0.10221E-02   820   0.190E-01    0.258E-01
RMM:   7    -0.350271363077E+03   -0.95254E-04   -0.80940E-03   827   0.183E-01    0.126E-01
RMM:   8    -0.350270990758E+03    0.37232E-03   -0.60466E-03   804   0.131E-01    0.359E-02
RMM:   9    -0.350271201152E+03   -0.21039E-03   -0.62282E-04   873   0.489E-02    0.530E-02
RMM:  10    -0.350271169138E+03    0.32014E-04   -0.54138E-04   804   0.427E-02    0.117E-02
RMM:  11    -0.350271207799E+03   -0.38661E-04   -0.10950E-04   840   0.181E-02    0.170E-02
RMM:  12    -0.350271229235E+03   -0.21436E-04   -0.27322E-05   768   0.982E-03    0.686E-03
RMM:  13    -0.350271232592E+03   -0.33570E-05   -0.69506E-06   699   0.530E-03    0.614E-03
RMM:  14    -0.350271235196E+03   -0.26038E-05   -0.12439E-06   516   0.271E-03    0.525E-03
RMM:  15    -0.350271235851E+03   -0.65470E-06   -0.24725E-06   561   0.332E-03
   3 F= -.35158172E+03 E0= -.35158172E+03  d E =-.133617E+01
 curvature:  -0.11 expect dE=-0.145E+00 dE for cont linesearch -0.372E-02
 ZBRENT: interpolating
 opt :   0.2509  next Energy=  -351.586111 (dE=-0.134E+01)
 bond charge predicted
       N       E                     dE             d eps       ncg     rms          rms(c)
RMM:   1    -0.350276326053E+03   -0.50909E-02   -0.42590E-01   804   0.173E+00    0.134E-01
RMM:   2    -0.350275924867E+03    0.40119E-03   -0.73599E-03   813   0.180E-01    0.103E-01
RMM:   3    -0.350275808988E+03    0.11588E-03   -0.26980E-04   837   0.317E-02    0.801E-02
RMM:   4    -0.350275701508E+03    0.10748E-03   -0.41084E-04   812   0.402E-02    0.310E-02
RMM:   5    -0.350275674833E+03    0.26675E-04   -0.79075E-05   829   0.168E-02    0.142E-02
RMM:   6    -0.350275670536E+03    0.42974E-05   -0.24109E-05   790   0.964E-03    0.852E-03
RMM:   7    -0.350275671474E+03   -0.93813E-06   -0.25745E-06   577   0.336E-03
   4 F= -.35158607E+03 E0= -.35158607E+03  d E =-.134052E+01
 curvature:  -0.13 expect dE=-0.144E+00 dE for cont linesearch -0.741E-08
 trial: gam= 0.10696 g(F)=  0.115E+01 g(S)=  0.000E+00 ort =-0.796E-03 (trialstep = 0.850E+00)
 search vector abs. value=  0.127E+01
 bond charge predicted
       N       E                     dE             d eps       ncg     rms          rms(c)
RMM:   1    -0.351050423282E+03   -0.77475E+00   -0.13977E+02   804   0.315E+01    0.229E+00
RMM:   2    -0.351744155938E+03   -0.69373E+00   -0.10354E+01   804   0.595E+00    0.578E+00
RMM:   3    -0.350839168680E+03    0.90499E+00   -0.14969E+00   804   0.256E+00    0.327E+00
RMM:   4    -0.350688353942E+03    0.15081E+00   -0.36981E+00   804   0.341E+00    0.112E+00
RMM:   5    -0.350662851478E+03    0.25502E-01   -0.10566E-01   804   0.772E-01    0.417E-01
RMM:   6    -0.350677204639E+03   -0.14353E-01   -0.84781E-02   804   0.563E-01    0.405E-01
RMM:   7    -0.350691538075E+03   -0.14333E-01   -0.41326E-02   804   0.399E-01    0.162E-01
RMM:   8    -0.350700317216E+03   -0.87791E-02   -0.20992E-03   824   0.917E-02    0.167E-01
RMM:   9    -0.350702912688E+03   -0.25955E-02   -0.10614E-03   804   0.633E-02    0.982E-02
RMM:  10    -0.350703581310E+03   -0.66862E-03   -0.32715E-03   804   0.102E-01    0.334E-02
RMM:  11    -0.350703703713E+03   -0.12240E-03   -0.10373E-04   804   0.225E-02    0.301E-02
RMM:  12    -0.350703785834E+03   -0.82121E-04   -0.40582E-04   804   0.356E-02    0.211E-02
RMM:  13    -0.350703819128E+03   -0.33293E-04   -0.12372E-04   805   0.206E-02    0.102E-02
RMM:  14    -0.350703836269E+03   -0.17141E-04   -0.71849E-06   709   0.578E-03    0.111E-02
RMM:  15    -0.350703840670E+03   -0.44015E-05   -0.83371E-06   734   0.596E-03    0.625E-03
RMM:  16    -0.350703833435E+03    0.72356E-05   -0.23538E-05   785   0.852E-03    0.870E-03
RMM:  17    -0.350703834606E+03   -0.11710E-05   -0.65548E-06   698   0.525E-03    0.520E-03
RMM:  18    -0.350703829106E+03    0.55000E-05   -0.16798E-06   528   0.311E-03    0.514E-03
RMM:  19    -0.350703822521E+03    0.65841E-05   -0.34036E-07   516   0.155E-03    0.510E-03
RMM:  20    -0.350703815243E+03    0.72782E-05   -0.15273E-07   516   0.116E-03    0.513E-03
RMM:  21    -0.350703817061E+03   -0.18177E-05   -0.45982E-08   369   0.609E-04    0.513E-03
RMM:  22    -0.350703816315E+03    0.74637E-06   -0.13141E-07   480   0.831E-04
   5 F= -.35201189E+03 E0= -.35201189E+03  d E =-.425822E+00
 trial-energy change:   -0.425822  1 .order   -0.435201   -0.974096    0.103694
 step:   0.7644(harm=  0.7684)  dis= 0.03214  next Energy=  -352.017137 (dE=-0.431E+00)
 bond charge predicted
       N       E                     dE             d eps       ncg     rms          rms(c)
RMM:   1    -0.350711253561E+03   -0.74365E-02   -0.14212E+00   804   0.320E+00    0.204E-01
RMM:   2    -0.350708864583E+03    0.23890E-02   -0.10681E-02   804   0.233E-01    0.980E-02
RMM:   3    -0.350708847379E+03    0.17204E-04   -0.19221E-03   839   0.779E-02    0.468E-02
RMM:   4    -0.350708801531E+03    0.45847E-04   -0.50479E-04   847   0.398E-02    0.103E-02
RMM:   5    -0.350708776852E+03    0.24679E-04   -0.17895E-05   804   0.971E-03    0.574E-03
RMM:   6    -0.350708784224E+03   -0.73720E-05   -0.89226E-06   727   0.618E-03    0.825E-03
RMM:   7    -0.350708799249E+03   -0.15024E-04   -0.85298E-06   762   0.619E-03    0.531E-03
RMM:   8    -0.350708801478E+03   -0.22293E-05   -0.32907E-07   516   0.148E-03    0.508E-03
RMM:   9    -0.350708800472E+03    0.10058E-05   -0.26945E-07   516   0.118E-03    0.505E-03
RMM:  10    -0.350708799248E+03    0.12242E-05   -0.39368E-08   361   0.565E-04    0.506E-03
RMM:  11    -0.350708798291E+03    0.95710E-06    0.00000E+00   228   0.372E-04
   6 F= -.35201709E+03 E0= -.35201709E+03  d E =-.431018E+00
 curvature:  -0.42 expect dE=-0.485E+00 dE for cont linesearch -0.474E-08
 trial: gam= 1.09443 g(F)=  0.114E+01 g(S)=  0.000E+00 ort = 0.119E-03 (trialstep = 0.397E+00)
 search vector abs. value=  0.266E+01
 bond charge predicted
       N       E                     dE             d eps       ncg     rms          rms(c)
RMM:   1    -0.351219473650E+03   -0.51067E+00   -0.66346E+01   804   0.221E+01    0.109E+00
RMM:   2    -0.351086504193E+03    0.13297E+00   -0.67389E-01   804   0.190E+00    0.159E+00
RMM:   3    -0.351043742959E+03    0.42761E-01   -0.70240E-01   804   0.151E+00    0.106E+00
RMM:   4    -0.351036990472E+03    0.67525E-02   -0.47337E-01   804   0.134E+00    0.653E-01
RMM:   5    -0.351033818595E+03    0.31719E-02   -0.51120E-02   804   0.484E-01    0.653E-02
RMM:   6    -0.351045987989E+03   -0.12169E-01   -0.83723E-03   827   0.183E-01    0.123E-01
RMM:   7    -0.351050537171E+03   -0.45492E-02   -0.35973E-03   804   0.127E-01    0.579E-02
RMM:   8    -0.351051103325E+03   -0.56615E-03   -0.48063E-04   804   0.476E-02    0.259E-02
RMM:   9    -0.351051610642E+03   -0.50732E-03   -0.57128E-04   832   0.448E-02    0.360E-02
RMM:  10    -0.351051709730E+03   -0.99087E-04   -0.21471E-04   810   0.300E-02    0.651E-03
RMM:  11    -0.351051845655E+03   -0.13593E-03   -0.21415E-05   776   0.917E-03    0.693E-03
RMM:  12    -0.351051972494E+03   -0.12684E-03   -0.13826E-05   743   0.698E-03    0.663E-03
RMM:  13    -0.351052009680E+03   -0.37186E-04   -0.38196E-06   648   0.415E-03    0.509E-03
RMM:  14    -0.351052014029E+03   -0.43483E-05   -0.50044E-07   516   0.190E-03    0.484E-03
RMM:  15    -0.351052016909E+03   -0.28807E-05   -0.21542E-07   516   0.133E-03    0.486E-03
RMM:  16    -0.351052016532E+03    0.37783E-06   -0.73828E-08   516   0.884E-04
   7 F= -.35236178E+03 E0= -.35236178E+03  d E =-.344693E+00
 trial-energy change:   -0.344693  1 .order   -0.344545   -0.453609   -0.235480
 step:   0.8253(harm=  0.8253)  dis= 0.04082  next Energy=  -352.488741 (dE=-0.472E+00)
 bond charge predicted
       N       E                     dE             d eps       ncg     rms          rms(c)
RMM:   1    -0.351376375079E+03   -0.32436E+00   -0.77491E+01   804   0.239E+01    0.120E+00
RMM:   2    -0.351165628723E+03    0.21075E+00   -0.47013E-01   804   0.165E+00    0.426E-01
RMM:   3    -0.351170437343E+03   -0.48086E-02   -0.10156E-01   804   0.540E-01    0.181E-01
RMM:   4    -0.351175286811E+03   -0.48495E-02   -0.14255E-02   825   0.248E-01    0.161E-01
RMM:   5    -0.351175511768E+03   -0.22496E-03   -0.54450E-03   812   0.150E-01    0.424E-02
RMM:   6    -0.351176001681E+03   -0.48991E-03   -0.20736E-04   805   0.336E-02    0.230E-02
RMM:   7    -0.351176494952E+03   -0.49327E-03   -0.27063E-04   804   0.297E-02    0.147E-02
RMM:   8    -0.351176621026E+03   -0.12607E-03   -0.11412E-04   804   0.204E-02    0.129E-02
RMM:   9    -0.351176640021E+03   -0.18995E-04   -0.19200E-05   804   0.903E-03    0.569E-03
RMM:  10    -0.351176652829E+03   -0.12808E-04   -0.12171E-05   754   0.632E-03    0.630E-03
RMM:  11    -0.351176646643E+03    0.61860E-05   -0.25232E-06   558   0.328E-03    0.494E-03
RMM:  12    -0.351176646666E+03   -0.23105E-07   -0.31739E-07   516   0.143E-03
   8 F= -.35248798E+03 E0= -.35248798E+03  d E =-.470885E+00
 curvature:  -0.96 expect dE=-0.589E+00 dE for cont linesearch -0.279E-04
 trial: gam= 0.46639 g(F)=  0.613E+00 g(S)=  0.000E+00 ort =-0.879E-02 (trialstep = 0.483E+00)
 search vector abs. value=  0.118E+01
 bond charge predicted
       N       E                     dE             d eps       ncg     rms          rms(c)
RMM:   1    -0.351396203335E+03   -0.21956E+00   -0.36706E+01   804   0.168E+01    0.877E-01
RMM:   2    -0.351351808654E+03    0.44395E-01   -0.41889E-01   804   0.156E+00    0.133E+00
RMM:   3    -0.351328489102E+03    0.23320E-01   -0.19175E-01   804   0.911E-01    0.733E-01
RMM:   4    -0.351314541699E+03    0.13947E-01   -0.59146E-02   820   0.462E-01    0.203E-01
RMM:   5    -0.351320431199E+03   -0.58895E-02   -0.21389E-02   810   0.274E-01    0.174E-01
RMM:   6    -0.351324336209E+03   -0.39050E-02   -0.96578E-03   804   0.195E-01    0.691E-02
RMM:   7    -0.351326375672E+03   -0.20395E-02   -0.66956E-04   811   0.551E-02    0.272E-02
RMM:   8    -0.351326917545E+03   -0.54187E-03   -0.90026E-05   814   0.195E-02    0.313E-02
RMM:   9    -0.351327548082E+03   -0.63054E-03   -0.21071E-04   804   0.270E-02    0.689E-03
RMM:  10    -0.351327794760E+03   -0.24668E-03   -0.24668E-05   806   0.104E-02    0.108E-02
RMM:  11    -0.351327944396E+03   -0.14964E-03   -0.33515E-05   804   0.122E-02    0.807E-03
RMM:  12    -0.351328000776E+03   -0.56380E-04   -0.86155E-06   732   0.509E-03    0.498E-03
RMM:  13    -0.351328048853E+03   -0.48077E-04   -0.24352E-06   577   0.345E-03    0.428E-03
RMM:  14    -0.351328063775E+03   -0.14922E-04   -0.44613E-07   516   0.152E-03    0.419E-03
RMM:  15    -0.351328071737E+03   -0.79615E-05   -0.29338E-07   516   0.116E-03    0.416E-03
RMM:  16    -0.351328078923E+03   -0.71867E-05   -0.59777E-08   424   0.785E-04    0.414E-03
RMM:  17    -0.351328079439E+03   -0.51549E-06   -0.27067E-07   516   0.113E-03
   9 F= -.35263963E+03 E0= -.35263963E+03  d E =-.151657E+00
 trial-energy change:   -0.151657  1 .order   -0.152003   -0.293727   -0.010278
 step:   0.5000(harm=  0.5000)  dis= 0.01539  next Energy=  -352.640164 (dE=-0.152E+00)
 bond charge predicted
       N       E                     dE             d eps       ncg     rms          rms(c)
RMM:   1    -0.351328347026E+03   -0.26810E-03   -0.48171E-02   804   0.610E-01    0.323E-02
RMM:   2    -0.351328254503E+03    0.92523E-04   -0.26414E-04   804   0.421E-02    0.557E-03
RMM:   3    -0.351328260876E+03   -0.63733E-05   -0.16285E-05   751   0.710E-03    0.621E-03
RMM:   4    -0.351328255353E+03    0.55230E-05   -0.39291E-06   661   0.408E-03    0.419E-03
RMM:   5    -0.351328258403E+03   -0.30495E-05   -0.40744E-07   516   0.154E-03    0.414E-03
RMM:   6    -0.351328260633E+03   -0.22296E-05   -0.10216E-07   489   0.827E-04    0.414E-03
RMM:   7    -0.351328260947E+03   -0.31468E-06   -0.63929E-10   232   0.406E-04
  10 F= -.35263983E+03 E0= -.35263983E+03  d E =-.151851E+00
 curvature:  -0.49 expect dE=-0.164E+00 dE for cont linesearch -0.966E-07
 trial: gam= 0.54112 g(F)=  0.337E+00 g(S)=  0.000E+00 ort = 0.485E-03 (trialstep = 0.486E+00)
 search vector abs. value=  0.684E+00
 bond charge predicted
       N       E                     dE             d eps       ncg     rms          rms(c)
RMM:   1    -0.351465996393E+03   -0.13774E+00   -0.14107E+01   804   0.104E+01    0.682E-01
RMM:   2    -0.351433473353E+03    0.32523E-01   -0.22734E-01   804   0.102E+00    0.600E-01
RMM:   3    -0.351419829954E+03    0.13643E-01   -0.33307E-02   804   0.357E-01    0.198E-01
RMM:   4    -0.351427830619E+03   -0.80007E-02   -0.32293E-02   804   0.318E-01    0.248E-01
RMM:   5    -0.351434561880E+03   -0.67313E-02   -0.62165E-03   804   0.167E-01    0.124E-01
RMM:   6    -0.351438805729E+03   -0.42438E-02   -0.21196E-03   804   0.973E-02    0.252E-02
RMM:   7    -0.351440192448E+03   -0.13867E-02   -0.35386E-04   880   0.353E-02    0.121E-02
RMM:   8    -0.351440437248E+03   -0.24480E-03   -0.32784E-05   804   0.114E-02    0.756E-03
RMM:   9    -0.351440490634E+03   -0.53386E-04   -0.14580E-05   786   0.754E-03    0.586E-03
RMM:  10    -0.351440559676E+03   -0.69042E-04   -0.76913E-06   797   0.630E-03    0.485E-03
RMM:  11    -0.351440572248E+03   -0.12572E-04   -0.12799E-06   516   0.365E-03    0.417E-03
RMM:  12    -0.351440567620E+03    0.46282E-05   -0.22094E-06   554   0.329E-03    0.423E-03
RMM:  13    -0.351440570490E+03   -0.28702E-05   -0.30166E-07   516   0.135E-03    0.395E-03
RMM:  14    -0.351440574306E+03   -0.38160E-05   -0.33919E-07   500   0.126E-03    0.393E-03
RMM:  15    -0.351440576801E+03   -0.24955E-05   -0.15771E-08   281   0.559E-04    0.390E-03
RMM:  16    -0.351440578274E+03   -0.14726E-05   -0.23792E-07   500   0.108E-03    0.397E-03
RMM:  17    -0.351440578368E+03   -0.94144E-07    0.00000E+00   228   0.428E-04
  11 F= -.35275252E+03 E0= -.35275252E+03  d E =-.112691E+00
 trial-energy change:   -0.112691  1 .order   -0.112196   -0.163831   -0.060561
 step:   0.7588(harm=  0.7710)  dis= 0.01748  next Energy=  -352.769599 (dE=-0.130E+00)
 bond charge predicted
       N       E                     dE             d eps       ncg     rms          rms(c)
RMM:   1    -0.351465277737E+03   -0.24699E-01   -0.44473E+00   804   0.585E+00    0.390E-01
RMM:   2    -0.351457178044E+03    0.80997E-02   -0.30393E-02   804   0.438E-01    0.387E-02
RMM:   3    -0.351457400921E+03   -0.22288E-03   -0.32342E-03   809   0.104E-01    0.472E-02
RMM:   4    -0.351457491590E+03   -0.90669E-04   -0.27331E-04   822   0.349E-02    0.184E-02
RMM:   5    -0.351457549726E+03   -0.58136E-04   -0.42488E-05   831   0.116E-02    0.102E-02
RMM:   6    -0.351457576324E+03   -0.26598E-04   -0.76150E-06   760   0.609E-03    0.754E-03
RMM:   7    -0.351457584335E+03   -0.80111E-05   -0.10793E-05   779   0.698E-03    0.485E-03
RMM:   8    -0.351457570613E+03    0.13723E-04   -0.30986E-06   617   0.379E-03    0.391E-03
RMM:   9    -0.351457572889E+03   -0.22763E-05   -0.39372E-07   516   0.136E-03    0.381E-03
RMM:  10    -0.351457573044E+03   -0.15495E-06   -0.25259E-07   480   0.105E-03
  12 F= -.35276978E+03 E0= -.35276978E+03  d E =-.129958E+00
 curvature:  -0.78 expect dE=-0.166E+00 dE for cont linesearch -0.107E-05
 trial: gam= 0.62621 g(F)=  0.212E+00 g(S)=  0.000E+00 ort = 0.970E-03 (trialstep = 0.541E+00)
 search vector abs. value=  0.482E+00
 bond charge predicted
       N       E                     dE             d eps       ncg     rms          rms(c)
RMM:   1    -0.351525359743E+03   -0.67787E-01   -0.64726E+00   804   0.730E+00    0.532E-01
RMM:   2    -0.351485580795E+03    0.39779E-01   -0.64403E-02   804   0.658E-01    0.468E-01
RMM:   3    -0.351520391746E+03   -0.34811E-01   -0.12806E-01   804   0.653E-01    0.923E-01
RMM:   4    -0.351512143308E+03    0.82484E-02   -0.18170E-01   804   0.835E-01    0.291E-01
RMM:   5    -0.351516655347E+03   -0.45120E-02   -0.22936E-02   804   0.297E-01    0.244E-01
RMM:   6    -0.351515776922E+03    0.87842E-03   -0.60949E-03   817   0.158E-01    0.602E-02
RMM:   7    -0.351517034294E+03   -0.12574E-02   -0.17229E-03   907   0.750E-02    0.286E-02
RMM:   8    -0.351518768626E+03   -0.17343E-02   -0.13340E-04   804   0.235E-02    0.217E-02
RMM:   9    -0.351519694850E+03   -0.92622E-03   -0.32162E-04   837   0.326E-02    0.211E-02
RMM:  10    -0.351520067762E+03   -0.37291E-03   -0.74007E-05   804   0.158E-02    0.104E-02
RMM:  11    -0.351520178256E+03   -0.11049E-03   -0.28668E-05   803   0.109E-02    0.573E-03
RMM:  12    -0.351520221285E+03   -0.43029E-04   -0.28594E-06   559   0.370E-03    0.399E-03
RMM:  13    -0.351520233666E+03   -0.12381E-04   -0.99729E-07   516   0.240E-03    0.383E-03
RMM:  14    -0.351520239108E+03   -0.54416E-05   -0.25905E-07   500   0.115E-03    0.384E-03
RMM:  15    -0.351520239977E+03   -0.86966E-06   -0.45624E-07   514   0.140E-03
  13 F= -.35283152E+03 E0= -.35283152E+03  d E =-.617327E-01
 trial-energy change:   -0.061733  1 .order   -0.061714   -0.115148   -0.008280
 step:   0.5825(harm=  0.5825)  dis= 0.01198  next Energy=  -352.831819 (dE=-0.620E-01)
 bond charge predicted
       N       E                     dE             d eps       ncg     rms          rms(c)
RMM:   1    -0.351520664869E+03   -0.42576E-03   -0.38815E-02   804   0.565E-01    0.408E-02
RMM:   2    -0.351520623520E+03    0.41349E-04   -0.27109E-04   804   0.442E-02    0.630E-03
RMM:   3    -0.351520642642E+03   -0.19121E-04   -0.23378E-05   804   0.988E-03    0.454E-03
RMM:   4    -0.351520641437E+03    0.12044E-05   -0.10173E-06   516   0.254E-03    0.386E-03
RMM:   5    -0.351520643374E+03   -0.19363E-05   -0.63101E-07   516   0.184E-03    0.373E-03
RMM:   6    -0.351520644054E+03   -0.68087E-06   -0.12805E-07   480   0.903E-04
  14 F= -.35283185E+03 E0= -.35283185E+03  d E =-.620696E-01
 curvature:  -0.66 expect dE=-0.693E-01 dE for cont linesearch -0.196E-07
 trial: gam= 0.50255 g(F)=  0.105E+00 g(S)=  0.000E+00 ort = 0.120E-03 (trialstep = 0.549E+00)
 search vector abs. value=  0.227E+00
 bond charge predicted
       N       E                     dE             d eps       ncg     rms          rms(c)
RMM:   1    -0.351548762546E+03   -0.28119E-01   -0.39728E+00   804   0.577E+00    0.335E-01
RMM:   2    -0.351530777271E+03    0.17985E-01   -0.59359E-02   804   0.556E-01    0.570E-01
RMM:   3    -0.351530860774E+03   -0.83503E-04   -0.11240E-01   804   0.619E-01    0.290E-01
RMM:   4    -0.351537159755E+03   -0.62990E-02   -0.23358E-02   804   0.310E-01    0.209E-01
RMM:   5    -0.351540279966E+03   -0.31202E-02   -0.39692E-03   804   0.129E-01    0.104E-01
RMM:   6    -0.351541525844E+03   -0.12459E-02   -0.22103E-03   804   0.931E-02    0.112E-02
RMM:   7    -0.351542295628E+03   -0.76978E-03   -0.89574E-05   805   0.210E-02    0.746E-03
RMM:   8    -0.351542463910E+03   -0.16828E-03   -0.24375E-05   734   0.724E-03    0.524E-03
RMM:   9    -0.351542524374E+03   -0.60464E-04   -0.15867E-05   781   0.716E-03    0.798E-03
RMM:  10    -0.351542528302E+03   -0.39281E-05   -0.38123E-06   624   0.414E-03    0.469E-03
RMM:  11    -0.351542530475E+03   -0.21725E-05   -0.31150E-06   610   0.349E-03    0.389E-03
RMM:  12    -0.351542531212E+03   -0.73707E-06   -0.33087E-07   516   0.147E-03
  15 F= -.35285418E+03 E0= -.35285418E+03  d E =-.223291E-01
 trial-energy change:   -0.022329  1 .order   -0.022593   -0.057793    0.012606
 step:   0.4488(harm=  0.4507)  dis= 0.00790  next Energy=  -352.855335 (dE=-0.235E-01)
 bond charge predicted
       N       E                     dE             d eps       ncg     rms          rms(c)
RMM:   1    -0.351543981532E+03   -0.14511E-02   -0.13204E-01   804   0.105E+00    0.608E-02
RMM:   2    -0.351543753698E+03    0.22783E-03   -0.74082E-04   804   0.672E-02    0.106E-02
RMM:   3    -0.351543772536E+03   -0.18838E-04   -0.88193E-05   811   0.151E-02    0.476E-03
RMM:   4    -0.351543769980E+03    0.25558E-05   -0.34348E-06   594   0.354E-03    0.429E-03
RMM:   5    -0.351543767926E+03    0.20537E-05   -0.12868E-06   516   0.224E-03    0.378E-03
RMM:   6    -0.351543766808E+03    0.11183E-05   -0.28793E-07   511   0.110E-03    0.375E-03
RMM:   7    -0.351543766535E+03    0.27351E-06   -0.64261E-08   333   0.548E-04
  16 F= -.35285533E+03 E0= -.35285533E+03  d E =-.234759E-01
 curvature:  -0.49 expect dE=-0.106E-01 dE for cont linesearch -0.728E-08
 trial: gam= 0.19719 g(F)=  0.218E-01 g(S)=  0.000E+00 ort = 0.584E-04 (trialstep = 0.529E+00)
 search vector abs. value=  0.307E-01
 bond charge predicted
       N       E                     dE             d eps       ncg     rms          rms(c)
RMM:   1    -0.351554231061E+03   -0.10464E-01   -0.86150E-01   804   0.258E+00    0.151E-01
RMM:   2    -0.351550593063E+03    0.36380E-02   -0.86683E-03   804   0.207E-01    0.917E-02
RMM:   3    -0.351548663320E+03    0.19297E-02   -0.37039E-03   804   0.121E-01    0.946E-02
RMM:   4    -0.351551551118E+03   -0.28878E-02   -0.13137E-03   804   0.700E-02    0.277E-02
RMM:   5    -0.351552151821E+03   -0.60070E-03   -0.34573E-04   822   0.354E-02    0.307E-02
RMM:   6    -0.351552308543E+03   -0.15672E-03   -0.59908E-05   802   0.138E-02    0.233E-02
RMM:   7    -0.351552368145E+03   -0.59602E-04   -0.17044E-05   793   0.804E-03    0.164E-02
RMM:   8    -0.351552378291E+03   -0.10146E-04   -0.80704E-05   804   0.160E-02    0.553E-03
RMM:   9    -0.351552374615E+03    0.36760E-05   -0.21924E-06   554   0.354E-03    0.421E-03
RMM:  10    -0.351552369684E+03    0.49308E-05   -0.63871E-07   516   0.180E-03    0.384E-03
RMM:  11    -0.351552368353E+03    0.13319E-05   -0.93903E-07   516   0.199E-03    0.386E-03
RMM:  12    -0.351552366410E+03    0.19426E-05   -0.12600E-07   480   0.835E-04    0.377E-03
RMM:  13    -0.351552365207E+03    0.12030E-05   -0.14144E-07   474   0.846E-04    0.374E-03
RMM:  14    -0.351552364429E+03    0.77799E-06    0.00000E+00   228   0.383E-04
  17 F= -.35286393E+03 E0= -.35286393E+03  d E =-.860322E-02
 trial-energy change:   -0.008603  1 .order   -0.008544   -0.011546   -0.005542
 step:   0.9691(harm=  1.0171)  dis= 0.00612  next Energy=  -352.866274 (dE=-0.109E-01)
 bond charge predicted
       N       E                     dE             d eps       ncg     rms          rms(c)
RMM:   1    -0.351556246218E+03   -0.38810E-02   -0.59596E-01   804   0.215E+00    0.125E-01
RMM:   2    -0.351554848296E+03    0.13979E-02   -0.32326E-03   804   0.139E-01    0.167E-02
RMM:   3    -0.351554923530E+03   -0.75234E-04   -0.29861E-04   805   0.277E-02    0.549E-03
RMM:   4    -0.351554929524E+03   -0.59933E-05   -0.23415E-05   748   0.776E-03    0.449E-03
RMM:   5    -0.351554934561E+03   -0.50372E-05   -0.14987E-06   540   0.174E-03    0.435E-03
RMM:   6    -0.351554934425E+03    0.13589E-06   -0.48129E-07   516   0.145E-03
  18 F= -.35286651E+03 E0= -.35286651E+03  d E =-.111808E-01
 curvature:  -0.71 expect dE=-0.288E-01 dE for cont linesearch -0.271E-04
 trial: gam= 1.82331 g(F)=  0.407E-01 g(S)=  0.000E+00 ort = 0.108E-02 (trialstep = 0.129E+00)
 search vector abs. value=  0.147E+00
 bond charge predicted
       N       E                     dE             d eps       ncg     rms          rms(c)
RMM:   1    -0.351560759862E+03   -0.58253E-02   -0.39883E-01   804   0.176E+00    0.980E-02
RMM:   2    -0.351559180251E+03    0.15796E-02   -0.36246E-03   804   0.131E-01    0.506E-02
RMM:   3    -0.351558923410E+03    0.25684E-03   -0.41358E-04   826   0.374E-02    0.221E-02
RMM:   4    -0.351559594610E+03   -0.67120E-03   -0.27761E-04   804   0.324E-02    0.317E-02
RMM:   5    -0.351559752414E+03   -0.15780E-03   -0.45632E-05   804   0.143E-02    0.168E-02
RMM:   6    -0.351559881806E+03   -0.12939E-03   -0.11363E-05   741   0.587E-03    0.160E-02
RMM:   7    -0.351559906326E+03   -0.24520E-04   -0.15515E-05   768   0.666E-03    0.110E-02
RMM:   8    -0.351559948727E+03   -0.42401E-04   -0.26983E-05   804   0.987E-03    0.505E-03
RMM:   9    -0.351559969185E+03   -0.20459E-04   -0.27109E-06   571   0.388E-03    0.392E-03
RMM:  10    -0.351559973848E+03   -0.46627E-05   -0.30663E-07   516   0.145E-03    0.377E-03
RMM:  11    -0.351559980760E+03   -0.69120E-05   -0.21595E-07   516   0.104E-03    0.375E-03
RMM:  12    -0.351559980465E+03    0.29508E-06   -0.12753E-07   409   0.706E-04
  19 F= -.35287161E+03 E0= -.35287161E+03  d E =-.509650E-02
 trial-energy change:   -0.005096  1 .order   -0.005051   -0.005509   -0.004593
 step:   0.4468(harm=  0.7757)  dis= 0.00691  next Energy=  -352.877943 (dE=-0.114E-01)
 bond charge predicted
       N       E                     dE             d eps       ncg     rms          rms(c)
RMM:   1    -0.351573309917E+03   -0.13329E-01   -0.24160E+00   804   0.433E+00    0.243E-01
RMM:   2    -0.351568123641E+03    0.51863E-02   -0.15072E-02   804   0.284E-01    0.519E-02
RMM:   3    -0.351568380320E+03   -0.25668E-03   -0.19861E-03   813   0.692E-02    0.156E-02
RMM:   4    -0.351568429155E+03   -0.48835E-04   -0.98185E-05   811   0.169E-02    0.126E-02
RMM:   5    -0.351568427758E+03    0.13975E-05   -0.22637E-05   774   0.689E-03    0.709E-03
RMM:   6    -0.351568426787E+03    0.97095E-06   -0.59061E-07   516   0.171E-03
  20 F= -.35288018E+03 E0= -.35288018E+03  d E =-.136671E-01
 curvature:  -0.99 expect dE=-0.101E-01 dE for cont linesearch -0.212E-02
 ZBRENT: increasing intervall
 opt :   1.0822  next Energy=  -352.880131 (dE=-0.136E-01)
 bond charge predicted
       N       E                     dE             d eps       ncg     rms          rms(c)
RMM:   1    -0.351587702855E+03   -0.19275E-01   -0.96525E+00   804   0.865E+00    0.492E-01
RMM:   2    -0.351566994839E+03    0.20708E-01   -0.57237E-02   804   0.559E-01    0.142E-01
RMM:   3    -0.351568067482E+03   -0.10726E-02   -0.81232E-03   804   0.139E-01    0.258E-02
RMM:   4    -0.351568164025E+03   -0.96542E-04   -0.50151E-04   814   0.348E-02    0.859E-03
RMM:   5    -0.351568219706E+03   -0.55681E-04   -0.22830E-04   814   0.226E-02    0.193E-02
RMM:   6    -0.351568214812E+03    0.48939E-05   -0.14265E-05   776   0.783E-03    0.120E-02
RMM:   7    -0.351568216590E+03   -0.17788E-05   -0.19659E-05   798   0.804E-03    0.433E-03
RMM:   8    -0.351568222035E+03   -0.54445E-05   -0.57934E-07   516   0.192E-03    0.498E-03
RMM:   9    -0.351568228148E+03   -0.61126E-05   -0.45295E-07   516   0.147E-03    0.569E-03
RMM:  10    -0.351568233204E+03   -0.50561E-05   -0.22964E-07   516   0.120E-03    0.488E-03
RMM:  11    -0.351568236935E+03   -0.37316E-05   -0.16378E-06   516   0.270E-03    0.373E-03
RMM:  12    -0.351568238225E+03   -0.12901E-05   -0.56071E-07   516   0.152E-03    0.362E-03
RMM:  13    -0.351568238482E+03   -0.25706E-06   -0.13307E-07   381   0.719E-04
  21 F= -.35288024E+03 E0= -.35288024E+03  d E =-.137271E-01
 curvature:   0.02 expect dE= 0.986E-03 dE for cont linesearch  0.503E-04
 ZBRENT: bracketing found
 ZBRENT: interpolating
 opt :   0.7591  next Energy=  -352.882951 (dE=-0.164E-01)
 bond charge predicted
       N       E                     dE             d eps       ncg     rms          rms(c)
RMM:   1    -0.351576441893E+03   -0.82037E-02   -0.24970E+00   804   0.440E+00    0.247E-01
RMM:   2    -0.351570854906E+03    0.55870E-02   -0.15643E-02   804   0.290E-01    0.534E-02
RMM:   3    -0.351571207777E+03   -0.35287E-03   -0.18293E-03   817   0.652E-02    0.969E-03
RMM:   4    -0.351571216569E+03   -0.87917E-05   -0.81365E-05   811   0.159E-02    0.539E-03
RMM:   5    -0.351571221548E+03   -0.49794E-05   -0.25307E-05   670   0.576E-03    0.492E-03
RMM:   6    -0.351571222140E+03   -0.59235E-06   -0.30892E-06   582   0.347E-03
  22 F= -.35288310E+03 E0= -.35288310E+03  d E =-.165846E-01
 curvature:  -1.21 expect dE=-0.187E-01 dE for cont linesearch -0.334E-06
 trial: gam= 0.48623 g(F)=  0.155E-01 g(S)=  0.000E+00 ort = 0.202E-03 (trialstep = 0.255E+00)
 search vector abs. value=  0.504E-01
 bond charge predicted
       N       E                     dE             d eps       ncg     rms          rms(c)
RMM:   1    -0.351575350766E+03   -0.41292E-02   -0.62593E-01   804   0.221E+00    0.100E-01
RMM:   2    -0.351573125233E+03    0.22255E-02   -0.51261E-03   804   0.169E-01    0.117E-01
RMM:   3    -0.351572660902E+03    0.46433E-03   -0.30733E-03   804   0.104E-01    0.353E-02
RMM:   4    -0.351573282868E+03   -0.62197E-03   -0.22295E-04   866   0.263E-02    0.400E-02
RMM:   5    -0.351573727081E+03   -0.44421E-03   -0.19975E-04   804   0.263E-02    0.154E-02
RMM:   6    -0.351574055987E+03   -0.32891E-03   -0.41606E-05   818   0.116E-02    0.699E-03
RMM:   7    -0.351574197723E+03   -0.14174E-03   -0.66571E-06   698   0.484E-03    0.482E-03
RMM:   8    -0.351574256936E+03   -0.59212E-04   -0.40678E-06   628   0.423E-03    0.432E-03
RMM:   9    -0.351574275914E+03   -0.18978E-04   -0.12312E-06   516   0.250E-03    0.489E-03
RMM:  10    -0.351574288868E+03   -0.12955E-04   -0.53686E-07   516   0.173E-03    0.481E-03
RMM:  11    -0.351574294221E+03   -0.53522E-05   -0.33433E-07   516   0.146E-03    0.412E-03
RMM:  12    -0.351574293815E+03    0.40554E-06   -0.50731E-07   513   0.152E-03
  23 F= -.35288606E+03 E0= -.35288606E+03  d E =-.296111E-02
 trial-energy change:   -0.002961  1 .order   -0.002915   -0.003990   -0.001840
 step:   0.4342(harm=  0.4733)  dis= 0.00392  next Energy=  -352.886719 (dE=-0.362E-02)
 bond charge predicted
       N       E                     dE             d eps       ncg     rms          rms(c)
RMM:   1    -0.351575665798E+03   -0.13716E-02   -0.30870E-01   804   0.156E+00    0.710E-02
RMM:   2    -0.351575120194E+03    0.54560E-03   -0.18243E-03   804   0.101E-01    0.115E-02
RMM:   3    -0.351575149829E+03   -0.29635E-04   -0.17122E-04   845   0.187E-02    0.736E-03
RMM:   4    -0.351575151406E+03   -0.15773E-05   -0.16728E-05   798   0.754E-03    0.397E-03
RMM:   5    -0.351575154323E+03   -0.29171E-05   -0.59176E-07   516   0.175E-03    0.388E-03
RMM:   6    -0.351575152212E+03    0.21112E-05   -0.20233E-07   516   0.111E-03    0.369E-03
RMM:   7    -0.351575152348E+03   -0.13623E-06   -0.43359E-08   296   0.470E-04
  24 F= -.35288684E+03 E0= -.35288684E+03  d E =-.374200E-02
 curvature:  -0.74 expect dE=-0.415E-02 dE for cont linesearch -0.210E-04
 ZBRENT: extrapolating
 opt :   0.4698  next Energy=  -352.886859 (dE=-0.376E-02)
 bond charge predicted
       N       E                     dE             d eps       ncg     rms          rms(c)
RMM:   1    -0.351575210000E+03   -0.57788E-04   -0.12201E-02   804   0.309E-01    0.144E-02
RMM:   2    -0.351575192186E+03    0.17815E-04   -0.72086E-05   804   0.201E-02    0.390E-03
RMM:   3    -0.351575194425E+03   -0.22392E-05   -0.75761E-06   677   0.394E-03    0.358E-03
RMM:   4    -0.351575194711E+03   -0.28569E-06   -0.19527E-07   465   0.101E-03
  25 F= -.35288686E+03 E0= -.35288686E+03  d E =-.376893E-02
 curvature:  -0.75 expect dE=-0.483E-02 dE for cont linesearch -0.866E-07
 trial: gam= 0.39892 g(F)=  0.643E-02 g(S)=  0.000E+00 ort =-0.763E-04 (trialstep = 0.298E+00)
 search vector abs. value=  0.144E-01
 bond charge predicted
       N       E                     dE             d eps       ncg     rms          rms(c)
RMM:   1    -0.351577072007E+03   -0.18776E-02   -0.27154E-01   804   0.145E+00    0.784E-02
RMM:   2    -0.351576389123E+03    0.68288E-03   -0.23344E-03   804   0.106E-01    0.508E-02
RMM:   3    -0.351576626253E+03   -0.23713E-03   -0.12422E-03   804   0.673E-02    0.104E-01
RMM:   4    -0.351576666683E+03   -0.40430E-04   -0.32098E-04   804   0.363E-02    0.693E-02
RMM:   5    -0.351576644304E+03    0.22380E-04   -0.63557E-04   804   0.435E-02    0.220E-02
RMM:   6    -0.351576702765E+03   -0.58461E-04   -0.24689E-04   846   0.286E-02    0.138E-02
RMM:   7    -0.351576703034E+03   -0.26937E-06   -0.61660E-06   689   0.569E-03
  26 F= -.35288840E+03 E0= -.35288840E+03  d E =-.153895E-02
 trial-energy change:   -0.001539  1 .order   -0.001512   -0.001908   -0.001117
 step:   0.5982(harm=  0.7194)  dis= 0.00288  next Energy=  -352.888993 (dE=-0.213E-02)
 bond charge predicted
       N       E                     dE             d eps       ncg     rms          rms(c)
RMM:   1    -0.351577788130E+03   -0.10854E-02   -0.27529E-01   804   0.146E+00    0.777E-02
RMM:   2    -0.351577379917E+03    0.40821E-03   -0.21833E-03   804   0.104E-01    0.114E-02
RMM:   3    -0.351577418185E+03   -0.38268E-04   -0.25244E-04   879   0.246E-02    0.733E-03
RMM:   4    -0.351577410423E+03    0.77623E-05   -0.81543E-06   698   0.592E-03    0.513E-03
RMM:   5    -0.351577396596E+03    0.13826E-04   -0.18937E-06   522   0.287E-03    0.426E-03
RMM:   6    -0.351577387353E+03    0.92434E-05   -0.67875E-07   516   0.184E-03    0.462E-03
RMM:   7    -0.351577384272E+03    0.30810E-05   -0.73094E-07   516   0.180E-03    0.384E-03
RMM:   8    -0.351577385175E+03   -0.90338E-06   -0.68689E-07   516   0.183E-03
  27 F= -.35288912E+03 E0= -.35288912E+03  d E =-.225258E-02
 curvature:  -0.74 expect dE=-0.261E-02 dE for cont linesearch -0.556E-04
 ZBRENT: extrapolating
 opt :   0.7132  next Energy=  -352.889177 (dE=-0.231E-02)
 bond charge predicted
       N       E                     dE             d eps       ncg     rms          rms(c)
RMM:   1    -0.351577490809E+03   -0.10654E-03   -0.40462E-02   804   0.558E-01    0.306E-02
RMM:   2    -0.351577435344E+03    0.55465E-04   -0.32606E-04   804   0.400E-02    0.620E-03
RMM:   3    -0.351577437470E+03   -0.21254E-05   -0.35212E-05   806   0.888E-03    0.397E-03
RMM:   4    -0.351577435939E+03    0.15303E-05   -0.51633E-07   516   0.176E-03    0.388E-03
RMM:   5    -0.351577434989E+03    0.94987E-06   -0.27628E-07   511   0.110E-03
  28 F= -.35288918E+03 E0= -.35288918E+03  d E =-.231463E-02
 curvature:  -0.80 expect dE=-0.377E-02 dE for cont linesearch -0.408E-09
 trial: gam= 0.72186 g(F)=  0.473E-02 g(S)=  0.000E+00 ort = 0.271E-05 (trialstep = 0.381E+00)
 search vector abs. value=  0.122E-01
 bond charge predicted
       N       E                     dE             d eps       ncg     rms          rms(c)
RMM:   1    -0.351579328495E+03   -0.18926E-02   -0.17544E-01   804   0.119E+00    0.618E-02
RMM:   2    -0.351578458050E+03    0.87044E-03   -0.26542E-03   842   0.103E-01    0.783E-02
RMM:   3    -0.351578241588E+03    0.21646E-03   -0.45908E-04   804   0.433E-02    0.358E-02
RMM:   4    -0.351578810910E+03   -0.56932E-03   -0.56246E-04   804   0.436E-02    0.241E-02
RMM:   5    -0.351579014777E+03   -0.20387E-03   -0.21846E-04   804   0.302E-02    0.165E-02
RMM:   6    -0.351579072976E+03   -0.58198E-04   -0.76564E-06   696   0.608E-03    0.148E-02
RMM:   7    -0.351579090078E+03   -0.17102E-04   -0.68522E-05   804   0.155E-02    0.767E-03
RMM:   8    -0.351579103910E+03   -0.13832E-04   -0.44608E-06   658   0.482E-03    0.484E-03
RMM:   9    -0.351579104174E+03   -0.26437E-06   -0.17730E-06   527   0.294E-03
  29 F= -.35289075E+03 E0= -.35289075E+03  d E =-.157285E-02
 ZBRENT: can't locate minimum, use default step
 trial-energy change:   -0.001573  1 .order   -0.001577   -0.001802   -0.001352
 step:   1.5242(harm=  1.5261)  dis= 0.00612  next Energy=  -352.893289 (dE=-0.411E-02)
 bond charge predicted
       N       E                     dE             d eps       ncg     rms          rms(c)
RMM:   1    -0.351583463087E+03   -0.43592E-02   -0.15787E+00   804   0.357E+00    0.185E-01
RMM:   2    -0.351581219664E+03    0.22434E-02   -0.11329E-02   804   0.240E-01    0.270E-02
RMM:   3    -0.351581426443E+03   -0.20678E-03   -0.13687E-03   881   0.507E-02    0.177E-02
RMM:   4    -0.351581420576E+03    0.58668E-05   -0.60370E-05   831   0.148E-02    0.847E-03
RMM:   5    -0.351581423926E+03   -0.33506E-05   -0.31549E-05   818   0.103E-02    0.108E-02
RMM:   6    -0.351581415663E+03    0.82636E-05   -0.44528E-06   648   0.447E-03    0.745E-03
RMM:   7    -0.351581408190E+03    0.74732E-05   -0.14657E-06   516   0.277E-03    0.539E-03
RMM:   8    -0.351581410031E+03   -0.18412E-05   -0.47593E-07   516   0.178E-03    0.462E-03
RMM:   9    -0.351581409020E+03    0.10112E-05   -0.28794E-07   516   0.127E-03    0.464E-03
RMM:  10    -0.351581408575E+03    0.44437E-06   -0.83658E-08   450   0.751E-04
  30 F= -.35289277E+03 E0= -.35289277E+03  d E =-.358961E-02
 curvature:  -1.97 expect dE=-0.223E-01 dE for cont linesearch -0.290E-08
 trial: gam= 2.42417 g(F)=  0.113E-01 g(S)=  0.000E+00 ort = 0.424E-05 (trialstep = 0.896E-01)
 search vector abs. value=  0.832E-01
 bond charge predicted
       N       E                     dE             d eps       ncg     rms          rms(c)
RMM:   1    -0.351582432013E+03   -0.10230E-02   -0.71674E-02   804   0.756E-01    0.436E-02
RMM:   2    -0.351582197911E+03    0.23410E-03   -0.54371E-04   804   0.543E-02    0.427E-02
RMM:   3    -0.351582209959E+03   -0.12048E-04   -0.94592E-05   805   0.181E-02    0.306E-02
RMM:   4    -0.351582307484E+03   -0.97525E-04   -0.48445E-05   839   0.132E-02    0.172E-02
RMM:   5    -0.351582293369E+03    0.14114E-04   -0.78159E-06   723   0.613E-03    0.178E-02
RMM:   6    -0.351582302585E+03   -0.92160E-05   -0.16885E-06   523   0.297E-03    0.142E-02
RMM:   7    -0.351582315616E+03   -0.13030E-04   -0.27124E-05   804   0.966E-03    0.549E-03
RMM:   8    -0.351582326049E+03   -0.10434E-04   -0.15914E-06   520   0.295E-03    0.513E-03
RMM:   9    -0.351582336768E+03   -0.10718E-04   -0.18425E-06   531   0.287E-03    0.577E-03
RMM:  10    -0.351582336568E+03    0.19945E-06   -0.82381E-07   516   0.210E-03
  31 F= -.35289369E+03 E0= -.35289369E+03  d E =-.926196E-03
 ZBRENT: can't locate minimum, use default step
 trial-energy change:   -0.000926  1 .order   -0.000934   -0.001015   -0.000852
 step:   0.3585(harm=  0.5588)  dis= 0.00443  next Energy=  -352.895934 (dE=-0.316E-02)
 bond charge predicted
       N       E                     dE             d eps       ncg     rms          rms(c)
RMM:   1    -0.351584966086E+03   -0.26293E-02   -0.64566E-01   804   0.227E+00    0.131E-01
RMM:   2    -0.351584028958E+03    0.93713E-03   -0.41186E-03   804   0.152E-01    0.215E-02
RMM:   3    -0.351584134816E+03   -0.10586E-03   -0.59001E-04   870   0.367E-02    0.145E-02
RMM:   4    -0.351584133029E+03    0.17863E-05   -0.45071E-05   809   0.129E-02    0.375E-03
RMM:   5    -0.351584138183E+03   -0.51535E-05   -0.38924E-06   648   0.404E-03    0.436E-03
RMM:   6    -0.351584145242E+03   -0.70591E-05   -0.67100E-07   516   0.196E-03    0.363E-03
RMM:   7    -0.351584151913E+03   -0.66711E-05   -0.25847E-07   516   0.116E-03    0.359E-03
RMM:   8    -0.351584155801E+03   -0.38880E-05   -0.17421E-07   410   0.892E-04    0.357E-03
RMM:   9    -0.351584158723E+03   -0.29222E-05   -0.93678E-08   415   0.729E-04    0.357E-03
RMM:  10    -0.351584160365E+03   -0.16415E-05   -0.14825E-09   231   0.446E-04    0.355E-03
RMM:  11    -0.351584160450E+03   -0.84918E-07   -0.57451E-08   403   0.615E-04
  32 F= -.35289551E+03 E0= -.35289551E+03  d E =-.274561E-02
 curvature:  -1.68 expect dE=-0.817E-02 dE for cont linesearch -0.321E-03
 ZBRENT: increasing intervall
 opt :   0.8961  next Energy=  -352.894690 (dE=-0.192E-02)
 bond charge predicted
       N       E                     dE             d eps       ncg     rms          rms(c)
RMM:   1    -0.351586722557E+03   -0.25622E-02   -0.25828E+00   804   0.454E+00    0.263E-01
RMM:   2    -0.351582939730E+03    0.37828E-02   -0.15863E-02   804   0.302E-01    0.583E-02
RMM:   3    -0.351583333990E+03   -0.39426E-03   -0.21638E-03   870   0.690E-02    0.603E-03
RMM:   4    -0.351583349569E+03   -0.15579E-04   -0.41229E-05   830   0.119E-02    0.443E-03
RMM:   5    -0.351583364216E+03   -0.14647E-04   -0.47394E-06   581   0.316E-03    0.482E-03
RMM:   6    -0.351583368002E+03   -0.37858E-05   -0.12268E-06   518   0.232E-03    0.541E-03
RMM:   7    -0.351583367925E+03    0.76829E-07   -0.53657E-07   516   0.152E-03
  33 F= -.35289472E+03 E0= -.35289472E+03  d E =-.194831E-02
 curvature:   4.31 expect dE= 0.111E+00 dE for cont linesearch  0.250E-02
 ZBRENT: bracketing found
 ZBRENT: interpolating
 opt :   0.5545  next Energy=  -352.895905 (dE=-0.314E-02)
 bond charge predicted
       N       E                     dE             d eps       ncg     rms          rms(c)
RMM:   1    -0.351585767998E+03   -0.24000E-02   -0.10418E+00   804   0.288E+00    0.168E-01
RMM:   2    -0.351584391417E+03    0.13766E-02   -0.66205E-03   804   0.193E-01    0.297E-02
RMM:   3    -0.351584541033E+03   -0.14962E-03   -0.85142E-04   870   0.433E-02    0.636E-03
RMM:   4    -0.351584549836E+03   -0.88032E-05   -0.15478E-05   756   0.765E-03    0.422E-03
RMM:   5    -0.351584553052E+03   -0.32161E-05   -0.24844E-06   559   0.276E-03    0.355E-03
RMM:   6    -0.351584553127E+03   -0.74861E-07   -0.33538E-07   511   0.119E-03
  34 F= -.35289590E+03 E0= -.35289590E+03  d E =-.313590E-02
 curvature:  -0.67 expect dE=-0.550E-02 dE for cont linesearch -0.259E-07
 trial: gam= 0.71442 g(F)=  0.817E-02 g(S)=  0.000E+00 ort = 0.566E-04 (trialstep = 0.183E+00)
 search vector abs. value=  0.507E-01
 bond charge predicted
       N       E                     dE             d eps       ncg     rms          rms(c)
RMM:   1    -0.351586052283E+03   -0.14992E-02   -0.10211E-01   804   0.910E-01    0.543E-02
RMM:   2    -0.351585861048E+03    0.19124E-03   -0.11172E-03   834   0.716E-02    0.375E-02
RMM:   3    -0.351585930667E+03   -0.69619E-04   -0.42981E-04   804   0.376E-02    0.157E-02
RMM:   4    -0.351585983691E+03   -0.53024E-04   -0.90716E-05   816   0.191E-02    0.156E-02
RMM:   5    -0.351585970988E+03    0.12703E-04   -0.71179E-06   696   0.566E-03    0.103E-02
RMM:   6    -0.351585962208E+03    0.87796E-05   -0.13567E-05   774   0.732E-03    0.393E-03
RMM:   7    -0.351585968424E+03   -0.62160E-05   -0.18058E-06   526   0.282E-03    0.382E-03
RMM:   8    -0.351585967530E+03    0.89460E-06   -0.39299E-07   516   0.151E-03
  35 F= -.35289736E+03 E0= -.35289736E+03  d E =-.145157E-02
 ZBRENT: can't locate minimum, use default step
 trial-energy change:   -0.001452  1 .order   -0.001451   -0.001500   -0.001401
 step:   0.7303(harm=  2.7764)  dis= 0.00851  next Energy=  -352.907309 (dE=-0.114E-01)
 bond charge predicted
       N       E                     dE             d eps       ncg     rms          rms(c)
RMM:   1    -0.351590433273E+03   -0.44648E-02   -0.91852E-01   804   0.273E+00    0.163E-01
RMM:   2    -0.351589460346E+03    0.97293E-03   -0.62975E-03   804   0.189E-01    0.245E-02
RMM:   3    -0.351589608344E+03   -0.14800E-03   -0.76526E-04   879   0.400E-02    0.805E-03
RMM:   4    -0.351589618362E+03   -0.10018E-04   -0.16189E-05   731   0.777E-03    0.538E-03
RMM:   5    -0.351589625977E+03   -0.76150E-05   -0.43807E-06   624   0.390E-03    0.363E-03
RMM:   6    -0.351589629610E+03   -0.36330E-05   -0.35375E-07   516   0.136E-03    0.358E-03
RMM:   7    -0.351589632597E+03   -0.29869E-05   -0.24447E-07   516   0.113E-03    0.367E-03
RMM:   8    -0.351589633720E+03   -0.11234E-05   -0.46221E-08   328   0.515E-04    0.368E-03
RMM:   9    -0.351589633631E+03    0.89931E-07   -0.42343E-08   322   0.613E-04
  36 F= -.35290114E+03 E0= -.35290114E+03  d E =-.523078E-02
 curvature:  -3.24 expect dE=-0.204E-01 dE for cont linesearch -0.236E-02
 ZBRENT: increasing intervall
 opt :   1.8258  next Energy=  -352.906052 (dE=-0.101E-01)
 bond charge predicted
       N       E                     dE             d eps       ncg     rms          rms(c)
RMM:   1    -0.351597738027E+03   -0.81043E-02   -0.36684E+00   804   0.546E+00    0.326E-01
RMM:   2    -0.351593688462E+03    0.40496E-02   -0.24970E-02   804   0.378E-01    0.688E-02
RMM:   3    -0.351594272163E+03   -0.58370E-03   -0.35015E-03   876   0.869E-02    0.928E-03
RMM:   4    -0.351594299650E+03   -0.27487E-04   -0.71210E-05   843   0.156E-02    0.437E-03
RMM:   5    -0.351594312399E+03   -0.12749E-04   -0.83071E-06   633   0.394E-03    0.437E-03
RMM:   6    -0.351594310252E+03    0.21474E-05   -0.87511E-07   516   0.190E-03    0.431E-03
RMM:   7    -0.351594305103E+03    0.51487E-05   -0.70098E-07   516   0.190E-03    0.440E-03
RMM:   8    -0.351594303116E+03    0.19869E-05   -0.31829E-07   516   0.130E-03    0.372E-03
RMM:   9    -0.351594301459E+03    0.16568E-05   -0.16229E-07   516   0.937E-04    0.361E-03
RMM:  10    -0.351594301760E+03   -0.30012E-06   -0.40557E-08   333   0.533E-04
  37 F= -.35290604E+03 E0= -.35290604E+03  d E =-.101316E-01
 curvature:  -6.74 expect dE=-0.888E-01 dE for cont linesearch -0.101E-02
 ZBRENT: increasing intervall
 opt :   4.0168  next Energy=  -352.904813 (dE=-0.891E-02)
 bond charge predicted
       N       E                     dE             d eps       ncg     rms          rms(c)
RMM:   1    -0.351607864598E+03   -0.13563E-01   -0.14625E+01   804   0.109E+01    0.656E-01
RMM:   2    -0.351589678942E+03    0.18186E-01   -0.10105E-01   804   0.758E-01    0.104E-01
RMM:   3    -0.351592090157E+03   -0.24112E-02   -0.13286E-02   879   0.167E-01    0.285E-02
RMM:   4    -0.351592097653E+03   -0.74954E-05   -0.26067E-04   836   0.309E-02    0.185E-02
RMM:   5    -0.351592112877E+03   -0.15224E-04   -0.53254E-05   874   0.112E-02    0.106E-02
RMM:   6    -0.351592112540E+03    0.33703E-06   -0.28054E-06   567   0.372E-03
  38 F= -.35290433E+03 E0= -.35290433E+03  d E =-.842888E-02
 curvature:   8.14 expect dE= 0.550E+00 dE for cont linesearch  0.309E-02
 ZBRENT: bracketing found
 ZBRENT: interpolating
 opt :   2.6720  next Energy=  -352.907205 (dE=-0.113E-01)
 bond charge predicted
       N       E                     dE             d eps       ncg     rms          rms(c)
RMM:   1    -0.351599277026E+03   -0.71641E-02   -0.54899E+00   804   0.668E+00    0.400E-01
RMM:   2    -0.351594575064E+03    0.47020E-02   -0.40500E-02   804   0.468E-01    0.489E-02
RMM:   3    -0.351595304052E+03   -0.72899E-03   -0.43011E-03   881   0.100E-01    0.132E-02
RMM:   4    -0.351595307103E+03   -0.30518E-05   -0.11407E-04   848   0.200E-02    0.581E-03
RMM:   5    -0.351595309457E+03   -0.23535E-05   -0.12669E-05   681   0.482E-03    0.541E-03
RMM:   6    -0.351595309079E+03    0.37810E-06   -0.15350E-06   529   0.275E-03
  39 F= -.35290723E+03 E0= -.35290723E+03  d E =-.113239E-01
 curvature:  -3.08 expect dE=-0.840E-01 dE for cont linesearch -0.243E-06
 trial: gam= 3.36184 g(F)=  0.273E-01 g(S)=  0.000E+00 ort = 0.633E-04 (trialstep = 0.574E-01)
 search vector abs. value=  0.601E+00
 bond charge predicted
       N       E                     dE             d eps       ncg     rms          rms(c)
RMM:   1    -0.351596886450E+03   -0.15770E-02   -0.16568E-01   804   0.114E+00    0.678E-02
RMM:   2    -0.351596469337E+03    0.41711E-03   -0.11537E-03   804   0.794E-02    0.239E-02
RMM:   3    -0.351596612389E+03   -0.14305E-03   -0.36379E-04   805   0.325E-02    0.268E-02
RMM:   4    -0.351596697536E+03   -0.85147E-04   -0.28871E-05   810   0.933E-03    0.236E-02
RMM:   5    -0.351596701177E+03   -0.36407E-05   -0.38083E-05   804   0.114E-02    0.128E-02
RMM:   6    -0.351596709417E+03   -0.82407E-05   -0.31626E-06   571   0.418E-03    0.792E-03
RMM:   7    -0.351596717019E+03   -0.76020E-05   -0.99067E-07   516   0.223E-03    0.624E-03
RMM:   8    -0.351596721942E+03   -0.49221E-05   -0.99953E-07   516   0.217E-03    0.478E-03
RMM:   9    -0.351596726484E+03   -0.45420E-05   -0.17526E-06   552   0.262E-03    0.375E-03
RMM:  10    -0.351596731168E+03   -0.46847E-05   -0.21864E-07   515   0.110E-03    0.371E-03
RMM:  11    -0.351596735264E+03   -0.40958E-05   -0.14765E-07   480   0.869E-04    0.369E-03
RMM:  12    -0.351596737932E+03   -0.26680E-05   -0.10130E-08   257   0.479E-04    0.365E-03
RMM:  13    -0.351596739609E+03   -0.16764E-05    0.00000E+00   228   0.454E-04    0.365E-03
RMM:  14    -0.351596740166E+03   -0.55715E-06   -0.10067E-10   228   0.451E-04
  40 F= -.35290875E+03 E0= -.35290875E+03  d E =-.151943E-02
 ZBRENT: can't locate minimum, use default step
 trial-energy change:   -0.001519  1 .order   -0.001514   -0.001580   -0.001448
 step:   0.2297(harm=  0.6871)  dis= 0.00908  next Energy=  -352.916681 (dE=-0.945E-02)
 bond charge predicted
       N       E                     dE             d eps       ncg     rms          rms(c)
RMM:   1    -0.351601778329E+03   -0.50387E-02   -0.14915E+00   804   0.341E+00    0.203E-01
RMM:   2    -0.351600085699E+03    0.16926E-02   -0.10842E-02   804   0.242E-01    0.247E-02
RMM:   3    -0.351600305463E+03   -0.21976E-03   -0.13401E-03   879   0.555E-02    0.171E-02
RMM:   4    -0.351600308557E+03   -0.30938E-05   -0.27548E-05   808   0.112E-02    0.856E-03
RMM:   5    -0.351600305263E+03    0.32932E-05   -0.87381E-06   719   0.526E-03    0.468E-03
RMM:   6    -0.351600310533E+03   -0.52697E-05   -0.84394E-07   516   0.204E-03    0.424E-03
RMM:   7    -0.351600311197E+03   -0.66354E-06   -0.64121E-07   516   0.188E-03
  41 F= -.35291259E+03 E0= -.35291259E+03  d E =-.535815E-02
 curvature:  -3.54 expect dE=-0.525E-01 dE for cont linesearch -0.212E-02
 ZBRENT: increasing intervall
 opt :   0.5743  next Energy=  -352.916976 (dE=-0.975E-02)
 bond charge predicted
       N       E                     dE             d eps       ncg     rms          rms(c)
RMM:   1    -0.351610668576E+03   -0.10358E-01   -0.59650E+00   804   0.683E+00    0.404E-01
RMM:   2    -0.351603212977E+03    0.74556E-02   -0.41191E-02   804   0.480E-01    0.108E-01
RMM:   3    -0.351604160272E+03   -0.94730E-03   -0.52601E-03   879   0.108E-01    0.153E-02
RMM:   4    -0.351604189576E+03   -0.29304E-04   -0.11171E-04   855   0.202E-02    0.668E-03
RMM:   5    -0.351604199034E+03   -0.94579E-05   -0.21381E-05   776   0.763E-03    0.476E-03
RMM:   6    -0.351604195483E+03    0.35509E-05   -0.13315E-06   531   0.276E-03    0.538E-03
RMM:   7    -0.351604195612E+03   -0.12871E-06   -0.13112E-06   516   0.242E-03
  42 F= -.35291702E+03 E0= -.35291702E+03  d E =-.978918E-02
 curvature:  -7.33 expect dE=-0.107E+00 dE for cont linesearch -0.578E-03
 ZBRENT: increasing intervall
 opt :   1.2634  next Energy=  -352.913428 (dE=-0.620E-02)
 bond charge predicted
       N       E                     dE             d eps       ncg     rms          rms(c)
RMM:   1    -0.351630826326E+03   -0.26631E-01   -0.23860E+01   804   0.137E+01    0.805E-01
RMM:   2    -0.351595895463E+03    0.34931E-01   -0.16566E-01   804   0.964E-01    0.186E-01
RMM:   3    -0.351599734582E+03   -0.38391E-02   -0.21914E-02   879   0.222E-01    0.385E-02
RMM:   4    -0.351599716736E+03    0.17846E-04   -0.47199E-04   835   0.431E-02    0.273E-02
RMM:   5    -0.351599820507E+03   -0.10377E-03   -0.62303E-05   875   0.116E-02    0.153E-02
RMM:   6    -0.351599828205E+03   -0.76984E-05   -0.12907E-05   793   0.686E-03    0.752E-03
RMM:   7    -0.351599847554E+03   -0.19349E-04   -0.46953E-06   692   0.422E-03    0.399E-03
RMM:   8    -0.351599854174E+03   -0.66193E-05   -0.18366E-06   518   0.297E-03    0.432E-03
RMM:   9    -0.351599852896E+03    0.12781E-05   -0.44179E-07   516   0.150E-03    0.411E-03
RMM:  10    -0.351599857552E+03   -0.46561E-05   -0.20149E-07   516   0.114E-03    0.417E-03
RMM:  11    -0.351599856972E+03    0.57962E-06   -0.34228E-07   516   0.130E-03
  43 F= -.35291381E+03 E0= -.35291381E+03  d E =-.658216E-02
 curvature:  45.53 expect dE= 0.343E+01 dE for cont linesearch  0.199E-01
 ZBRENT: bracketing found
 ZBRENT: interpolating
 opt :   0.7798  next Energy=  -352.917725 (dE=-0.105E-01)
 bond charge predicted
       N       E                     dE             d eps       ncg     rms          rms(c)
RMM:   1    -0.351613846591E+03   -0.13989E-01   -0.11688E+01   804   0.955E+00    0.580E-01
RMM:   2    -0.351602574981E+03    0.11272E-01   -0.88126E-02   804   0.692E-01    0.904E-02
RMM:   3    -0.351604556085E+03   -0.19811E-02   -0.95678E-03   884   0.146E-01    0.319E-02
RMM:   4    -0.351604604410E+03   -0.48325E-04   -0.26981E-04   829   0.326E-02    0.241E-02
RMM:   5    -0.351604608123E+03   -0.37123E-05   -0.32415E-05   878   0.952E-03    0.194E-02
RMM:   6    -0.351604602839E+03    0.52834E-05   -0.25659E-05   803   0.992E-03    0.643E-03
RMM:   7    -0.351604598934E+03    0.39049E-05   -0.53363E-06   695   0.443E-03    0.382E-03
RMM:   8    -0.351604597043E+03    0.18913E-05   -0.66549E-07   516   0.196E-03    0.376E-03
RMM:   9    -0.351604597840E+03   -0.79662E-06   -0.13339E-07   515   0.954E-04
  44 F= -.35291775E+03 E0= -.35291775E+03  d E =-.105240E-01
 curvature:  -1.62 expect dE=-0.397E-01 dE for cont linesearch -0.530E-07
 trial: gam= 0.96689 g(F)=  0.245E-01 g(S)=  0.000E+00 ort =-0.140E-03 (trialstep = 0.202E+00)
 search vector abs. value=  0.586E+00
 bond charge predicted
       N       E                     dE             d eps       ncg     rms          rms(c)
RMM:   1    -0.351610265723E+03   -0.56687E-02   -0.21431E+00   804   0.407E+00    0.221E-01
RMM:   2    -0.351605500337E+03    0.47654E-02   -0.19685E-02   804   0.315E-01    0.119E-01
RMM:   3    -0.351607891634E+03   -0.23913E-02   -0.75836E-03   805   0.156E-01    0.171E-01
RMM:   4    -0.351608117017E+03   -0.22538E-03   -0.36576E-04   832   0.363E-02    0.141E-01
RMM:   5    -0.351607863498E+03    0.25352E-03   -0.20455E-03   804   0.853E-02    0.278E-02
RMM:   6    -0.351608092659E+03   -0.22916E-03   -0.88314E-05   806   0.190E-02    0.184E-02
RMM:   7    -0.351608181625E+03   -0.88966E-04   -0.36241E-05   830   0.103E-02    0.148E-02
RMM:   8    -0.351608209744E+03   -0.28119E-04   -0.12938E-05   793   0.688E-03    0.608E-03
RMM:   9    -0.351608209799E+03   -0.55290E-07   -0.26945E-06   572   0.342E-03
  45 F= -.35292157E+03 E0= -.35292157E+03  d E =-.381850E-02
 trial-energy change:   -0.003819  1 .order   -0.003746   -0.004914   -0.002578
 step:   0.3683(harm=  0.4248)  dis= 0.01405  next Energy=  -352.922674 (dE=-0.492E-02)
 bond charge predicted
       N       E                     dE             d eps       ncg     rms          rms(c)
RMM:   1    -0.351610756190E+03   -0.25464E-02   -0.14538E+00   804   0.335E+00    0.182E-01
RMM:   2    -0.351609176006E+03    0.15802E-02   -0.10831E-02   806   0.236E-01    0.254E-02
RMM:   3    -0.351609367903E+03   -0.19190E-03   -0.12141E-03   887   0.504E-02    0.132E-02
RMM:   4    -0.351609362718E+03    0.51850E-05   -0.36290E-05   838   0.118E-02    0.567E-03
RMM:   5    -0.351609359657E+03    0.30605E-05   -0.77085E-06   668   0.507E-03    0.495E-03
RMM:   6    -0.351609357536E+03    0.21211E-05   -0.40192E-07   516   0.154E-03    0.443E-03
RMM:   7    -0.351609359437E+03   -0.19001E-05   -0.51068E-07   516   0.158E-03    0.354E-03
RMM:   8    -0.351609363578E+03   -0.41415E-05   -0.13058E-07   516   0.101E-03    0.350E-03
RMM:   9    -0.351609364224E+03   -0.64595E-06   -0.56094E-09   245   0.359E-04
  46 F= -.35292290E+03 E0= -.35292290E+03  d E =-.514789E-02
 curvature:  -4.79 expect dE=-0.127E-01 dE for cont linesearch -0.771E-04
 ZBRENT: extrapolating
 opt :   0.4210  next Energy=  -352.922981 (dE=-0.523E-02)
 bond charge predicted
       N       E                     dE             d eps       ncg     rms          rms(c)
RMM:   1    -0.351609522730E+03   -0.15915E-03   -0.14574E-01   804   0.106E+00    0.580E-02
RMM:   2    -0.351609383693E+03    0.13904E-03   -0.10985E-03   807   0.751E-02    0.767E-03
RMM:   3    -0.351609404595E+03   -0.20901E-04   -0.12424E-04   881   0.163E-02    0.448E-03
RMM:   4    -0.351609403595E+03    0.99973E-06   -0.20233E-06   555   0.298E-03
  47 F= -.35292300E+03 E0= -.35292300E+03  d E =-.524351E-02
 curvature:  -5.03 expect dE=-0.142E-01 dE for cont linesearch -0.127E-06
 trial: gam= 0.09783 g(F)=  0.282E-02 g(S)=  0.000E+00 ort =-0.121E-03 (trialstep = 0.246E+00)
 search vector abs. value=  0.841E-02
 bond charge predicted
       N       E                     dE             d eps       ncg     rms          rms(c)
RMM:   1    -0.351610102537E+03   -0.69794E-03   -0.10341E-01   804   0.882E-01    0.450E-02
RMM:   2    -0.351609928551E+03    0.17399E-03   -0.26996E-03   817   0.106E-01    0.867E-02
RMM:   3    -0.351609730117E+03    0.19843E-03   -0.63905E-04   804   0.511E-02    0.195E-02
RMM:   4    -0.351609895131E+03   -0.16501E-03   -0.52638E-04   810   0.419E-02    0.331E-02
RMM:   5    -0.351609934497E+03   -0.39366E-04   -0.81355E-05   809   0.192E-02    0.111E-02
RMM:   6    -0.351609966734E+03   -0.32237E-04   -0.41799E-05   828   0.117E-02    0.435E-03
RMM:   7    -0.351609976133E+03   -0.93991E-05   -0.15369E-06   520   0.299E-03    0.386E-03
RMM:   8    -0.351609969037E+03    0.70956E-05   -0.61356E-07   516   0.175E-03    0.388E-03
RMM:   9    -0.351609970274E+03   -0.12365E-05   -0.16869E-07   516   0.108E-03    0.359E-03
RMM:  10    -0.351609967924E+03    0.23494E-05   -0.32184E-07   516   0.131E-03    0.357E-03
RMM:  11    -0.351609965704E+03    0.22203E-05   -0.72639E-08   379   0.647E-04    0.355E-03
RMM:  12    -0.351609965561E+03    0.14283E-06   -0.95960E-09   261   0.500E-04
  48 F= -.35292361E+03 E0= -.35292361E+03  d E =-.613810E-03
 ZBRENT: can't locate minimum, use default step
 trial-energy change:   -0.000614  1 .order   -0.000614   -0.000691   -0.000537
 step:   0.9829(harm=  1.0980)  dis= 0.00322  next Energy=  -352.924540 (dE=-0.154E-02)
 bond charge predicted
       N       E                     dE             d eps       ncg     rms          rms(c)
RMM:   1    -0.351611945799E+03   -0.19801E-02   -0.93095E-01   804   0.265E+00    0.134E-01
RMM:   2    -0.351610611784E+03    0.13340E-02   -0.76658E-03   812   0.190E-01    0.224E-02
RMM:   3    -0.351610714306E+03   -0.10252E-03   -0.85092E-04   887   0.431E-02    0.926E-03
RMM:   4    -0.351610708021E+03    0.62849E-05   -0.18008E-05   768   0.837E-03    0.463E-03
RMM:   5    -0.351610706901E+03    0.11204E-05   -0.22290E-06   554   0.277E-03    0.366E-03
RMM:   6    -0.351610708927E+03   -0.20267E-05   -0.41587E-07   516   0.153E-03    0.357E-03
RMM:   7    -0.351610708417E+03    0.51029E-06   -0.16291E-07   481   0.851E-04
  49 F= -.35292451E+03 E0= -.35292451E+03  d E =-.151513E-02
 curvature:  -1.61 expect dE=-0.677E-02 dE for cont linesearch -0.914E-05
 trial: gam= 1.40423 g(F)=  0.420E-02 g(S)=  0.000E+00 ort = 0.218E-03 (trialstep = 0.155E+00)
 search vector abs. value=  0.214E-01
 bond charge predicted
       N       E                     dE             d eps       ncg     rms          rms(c)
RMM:   1    -0.351611498037E+03   -0.78911E-03   -0.89151E-02   804   0.820E-01    0.343E-02
RMM:   2    -0.351610971688E+03    0.52635E-03   -0.14347E-03   814   0.780E-02    0.637E-02
RMM:   3    -0.351611041940E+03   -0.70252E-04   -0.26591E-04   804   0.327E-02    0.247E-02
RMM:   4    -0.351611294610E+03   -0.25267E-03   -0.29341E-04   808   0.316E-02    0.160E-02
RMM:   5    -0.351611317674E+03   -0.23064E-04   -0.13658E-05   801   0.878E-03    0.760E-03
RMM:   6    -0.351611330341E+03   -0.12667E-04   -0.12448E-05   759   0.664E-03    0.371E-03
RMM:   7    -0.351611345166E+03   -0.14825E-04   -0.31580E-07   516   0.150E-03    0.361E-03
RMM:   8    -0.351611353343E+03   -0.81774E-05   -0.37693E-07   516   0.118E-03    0.380E-03
RMM:   9    -0.351611354518E+03   -0.11753E-05   -0.11398E-07   516   0.889E-04    0.362E-03
RMM:  10    -0.351611357036E+03   -0.25178E-05   -0.23078E-07   510   0.103E-03    0.350E-03
RMM:  11    -0.351611356277E+03    0.75902E-06   -0.50223E-08   516   0.778E-04
  50 F= -.35292514E+03 E0= -.35292514E+03  d E =-.626613E-03
 ZBRENT: can't locate minimum, use default step
 trial-energy change:   -0.000627  1 .order   -0.000636   -0.000696   -0.000575
 step:   0.6182(harm=  0.8836)  dis= 0.00321  next Energy=  -352.926502 (dE=-0.199E-02)
 bond charge predicted
       N       E                     dE             d eps       ncg     rms          rms(c)
RMM:   1    -0.351613784510E+03   -0.24275E-02   -0.80272E-01   804   0.246E+00    0.103E-01
RMM:   2    -0.351612475982E+03    0.13085E-02   -0.57759E-03   807   0.166E-01    0.163E-02
RMM:   3    -0.351612569075E+03   -0.93093E-04   -0.69492E-04   889   0.349E-02    0.851E-03
RMM:   4    -0.351612566135E+03    0.29399E-05   -0.14815E-05   772   0.796E-03    0.522E-03
RMM:   5    -0.351612567696E+03   -0.15608E-05   -0.31783E-06   590   0.344E-03    0.421E-03
RMM:   6    -0.351612566531E+03    0.11643E-05   -0.25095E-07   515   0.120E-03    0.393E-03
RMM:   7    -0.351612564905E+03    0.16266E-05   -0.25701E-07   516   0.111E-03    0.376E-03
RMM:   8    -0.351612564489E+03    0.41592E-06   -0.54438E-08   383   0.642E-04
  51 F= -.35292628E+03 E0= -.35292628E+03  d E =-.177324E-02
 curvature:  -1.82 expect dE=-0.578E-02 dE for cont linesearch -0.127E-03
 ZBRENT: extrapolating
 opt :   0.8454  next Energy=  -352.926423 (dE=-0.191E-02)
 bond charge predicted
       N       E                     dE             d eps       ncg     rms          rms(c)
RMM:   1    -0.351613028171E+03   -0.46327E-03   -0.19290E-01   804   0.121E+00    0.507E-02
RMM:   2    -0.351612709873E+03    0.31830E-03   -0.13861E-03   807   0.816E-02    0.906E-03
RMM:   3    -0.351612734168E+03   -0.24295E-04   -0.16753E-04   889   0.170E-02    0.381E-03
RMM:   4    -0.351612732428E+03    0.17404E-05   -0.22210E-06   556   0.302E-03    0.354E-03
RMM:   5    -0.351612733180E+03   -0.75202E-06   -0.42386E-07   514   0.121E-03
  52 F= -.35292642E+03 E0= -.35292642E+03  d E =-.191292E-02
 curvature:  -1.99 expect dE=-0.115E-01 dE for cont linesearch -0.266E-08
 trial: gam= 1.51448 g(F)=  0.578E-02 g(S)=  0.000E+00 ort = 0.535E-05 (trialstep = 0.114E+00)
 search vector abs. value=  0.549E-01
 bond charge predicted
       N       E                     dE             d eps       ncg     rms          rms(c)
RMM:   1    -0.351613491902E+03   -0.75947E-03   -0.10527E-01   804   0.895E-01    0.390E-02
RMM:   2    -0.351613167546E+03    0.32436E-03   -0.83765E-04   805   0.646E-02    0.305E-02
RMM:   3    -0.351613270100E+03   -0.10255E-03   -0.92456E-05   881   0.139E-02    0.148E-02
RMM:   4    -0.351613300914E+03   -0.30813E-04   -0.21224E-05   815   0.866E-03    0.759E-03
RMM:   5    -0.351613325435E+03   -0.24521E-04   -0.30180E-06   596   0.339E-03    0.600E-03
RMM:   6    -0.351613323162E+03    0.22729E-05   -0.83113E-07   516   0.207E-03    0.511E-03
RMM:   7    -0.351613323565E+03   -0.40214E-06   -0.65714E-07   516   0.176E-03
  53 F= -.35292702E+03 E0= -.35292702E+03  d E =-.598763E-03
 ZBRENT: can't locate minimum, use default step
 trial-energy change:   -0.000599  1 .order   -0.000601   -0.000661   -0.000541
 step:   0.4565(harm=  0.6297)  dis= 0.00387  next Energy=  -352.928247 (dE=-0.182E-02)
 bond charge predicted
       N       E                     dE             d eps       ncg     rms          rms(c)
RMM:   1    -0.351615894548E+03   -0.25714E-02   -0.94780E-01   804   0.268E+00    0.116E-01
RMM:   2    -0.351614286467E+03    0.16081E-02   -0.62056E-03   808   0.177E-01    0.286E-02
RMM:   3    -0.351614376913E+03   -0.90445E-04   -0.79301E-04   880   0.365E-02    0.757E-03
RMM:   4    -0.351614378296E+03   -0.13836E-05   -0.15332E-05   690   0.728E-03    0.647E-03
RMM:   5    -0.351614380091E+03   -0.17942E-05   -0.64441E-06   680   0.445E-03    0.468E-03
RMM:   6    -0.351614380529E+03   -0.43810E-06   -0.60213E-07   516   0.196E-03
  54 F= -.35292811E+03 E0= -.35292811E+03  d E =-.168372E-02
 curvature:  -2.65 expect dE=-0.532E-02 dE for cont linesearch -0.145E-03
 ZBRENT: increasing intervall
 opt :   1.1413  next Energy=  -352.927239 (dE=-0.815E-03)
 bond charge predicted
       N       E                     dE             d eps       ncg     rms          rms(c)
RMM:   1    -0.351619602612E+03   -0.52225E-02   -0.37955E+00   804   0.537E+00    0.233E-01
RMM:   2    -0.351612950750E+03    0.66519E-02   -0.24817E-02   807   0.353E-01    0.590E-02
RMM:   3    -0.351613361976E+03   -0.41123E-03   -0.31357E-03   880   0.729E-02    0.152E-02
RMM:   4    -0.351613368277E+03   -0.63006E-05   -0.59335E-05   851   0.138E-02    0.110E-02
RMM:   5    -0.351613380463E+03   -0.12186E-04   -0.19972E-05   793   0.759E-03    0.556E-03
RMM:   6    -0.351613388266E+03   -0.78031E-05   -0.97935E-07   522   0.219E-03    0.498E-03
RMM:   7    -0.351613392503E+03   -0.42364E-05   -0.98471E-07   516   0.213E-03    0.461E-03
RMM:   8    -0.351613394265E+03   -0.17623E-05   -0.23025E-07   516   0.110E-03    0.390E-03
RMM:   9    -0.351613397677E+03   -0.34118E-05   -0.23950E-07   516   0.105E-03    0.364E-03
RMM:  10    -0.351613392280E+03    0.53970E-05   -0.49260E-08   479   0.765E-04    0.365E-03
RMM:  11    -0.351613391931E+03    0.34838E-06   -0.71050E-09   269   0.482E-04
  55 F= -.35292719E+03 E0= -.35292719E+03  d E =-.763954E-03
 curvature:  15.82 expect dE= 0.150E+00 dE for cont linesearch  0.518E-02
 ZBRENT: bracketing found
 ZBRENT: interpolating
 opt :   0.6556  next Energy=  -352.928281 (dE=-0.186E-02)
 bond charge predicted
       N       E                     dE             d eps       ncg     rms          rms(c)
RMM:   1    -0.351617376994E+03   -0.39847E-02   -0.19072E+00   804   0.380E+00    0.165E-01
RMM:   2    -0.351614286095E+03    0.30909E-02   -0.12575E-02   807   0.251E-01    0.281E-02
RMM:   3    -0.351614512881E+03   -0.22679E-03   -0.15835E-03   873   0.522E-02    0.760E-03
RMM:   4    -0.351614516818E+03   -0.39365E-05   -0.37632E-05   794   0.106E-02    0.450E-03
RMM:   5    -0.351614516528E+03    0.28964E-06   -0.61890E-06   571   0.336E-03
  56 F= -.35292826E+03 E0= -.35292826E+03  d E =-.183796E-02
 curvature:  -0.53 expect dE=-0.134E-02 dE for cont linesearch -0.267E-07
 trial: gam= 0.33995 g(F)=  0.253E-02 g(S)=  0.000E+00 ort = 0.527E-04 (trialstep = 0.222E+00)
 search vector abs. value=  0.891E-02
 bond charge predicted
       N       E                     dE             d eps       ncg     rms          rms(c)
RMM:   1    -0.351615032554E+03   -0.51574E-03   -0.44621E-02   804   0.599E-01    0.312E-02
RMM:   2    -0.351614835723E+03    0.19683E-03   -0.46922E-04   806   0.469E-02    0.356E-02
RMM:   3    -0.351614640914E+03    0.19481E-03   -0.15719E-04   804   0.261E-02    0.224E-02
RMM:   4    -0.351614802867E+03   -0.16195E-03   -0.34517E-05   810   0.115E-02    0.162E-02
RMM:   5    -0.351614884618E+03   -0.81751E-04   -0.52806E-05   804   0.153E-02    0.105E-02
RMM:   6    -0.351614930625E+03   -0.46007E-04   -0.24170E-06   559   0.340E-03    0.766E-03
RMM:   7    -0.351614953084E+03   -0.22459E-04   -0.53563E-06   700   0.504E-03    0.434E-03
RMM:   8    -0.351614964899E+03   -0.11815E-04   -0.47786E-06   660   0.423E-03    0.469E-03
RMM:   9    -0.351614970257E+03   -0.53582E-05   -0.10230E-06   516   0.242E-03    0.385E-03
RMM:  10    -0.351614971530E+03   -0.12724E-05   -0.70614E-07   516   0.184E-03    0.392E-03
RMM:  11    -0.351614971863E+03   -0.33355E-06   -0.23827E-07   516   0.122E-03
  57 F= -.35292875E+03 E0= -.35292875E+03  d E =-.488960E-03
 ZBRENT: can't locate minimum, use default step
 trial-energy change:   -0.000489  1 .order   -0.000502   -0.000567   -0.000437
 step:   0.8897(harm=  0.9687)  dis= 0.00291  next Energy=  -352.929497 (dE=-0.124E-02)
 bond charge predicted
       N       E                     dE             d eps       ncg     rms          rms(c)
RMM:   1    -0.351616082823E+03   -0.11113E-02   -0.40217E-01   804   0.180E+00    0.937E-02
RMM:   2    -0.351615566848E+03    0.51598E-03   -0.27476E-03   804   0.123E-01    0.109E-02
RMM:   3    -0.351615580977E+03   -0.14129E-04   -0.33524E-04   866   0.277E-02    0.542E-03
RMM:   4    -0.351615589143E+03   -0.81665E-05   -0.86852E-06   639   0.528E-03    0.498E-03
RMM:   5    -0.351615586858E+03    0.22848E-05   -0.23907E-06   558   0.243E-03    0.506E-03
RMM:   6    -0.351615587764E+03   -0.90541E-06   -0.39037E-07   516   0.138E-03
  58 F= -.35292947E+03 E0= -.35292947E+03  d E =-.120770E-02
 curvature:  -1.67 expect dE=-0.533E-02 dE for cont linesearch -0.128E-04
 trial: gam= 1.16114 g(F)=  0.319E-02 g(S)=  0.000E+00 ort = 0.261E-03 (trialstep = 0.201E+00)
 search vector abs. value=  0.158E-01
 bond charge predicted
       N       E                     dE             d eps       ncg     rms          rms(c)
RMM:   1    -0.351616288223E+03   -0.70136E-03   -0.45227E-02   804   0.624E-01    0.306E-02
RMM:   2    -0.351616069801E+03    0.21842E-03   -0.44407E-04   804   0.476E-02    0.266E-02
RMM:   3    -0.351616064389E+03    0.54113E-05   -0.34127E-04   804   0.354E-02    0.271E-02
RMM:   4    -0.351616151091E+03   -0.86701E-04   -0.92669E-06   732   0.641E-03    0.245E-02
RMM:   5    -0.351616177561E+03   -0.26470E-04   -0.12802E-04   804   0.208E-02    0.846E-03
RMM:   6    -0.351616190637E+03   -0.13075E-04   -0.15534E-05   804   0.832E-03    0.728E-03
RMM:   7    -0.351616217643E+03   -0.27007E-04   -0.17007E-06   516   0.321E-03    0.494E-03
RMM:   8    -0.351616227480E+03   -0.98365E-05   -0.28793E-06   597   0.347E-03    0.388E-03
RMM:   9    -0.351616243141E+03   -0.15661E-04   -0.13224E-06   516   0.280E-03    0.417E-03
RMM:  10    -0.351616240396E+03    0.27441E-05   -0.28563E-07   516   0.138E-03    0.371E-03
RMM:  11    -0.351616244712E+03   -0.43158E-05   -0.40028E-07   516   0.153E-03    0.363E-03
RMM:  12    -0.351616245380E+03   -0.66734E-06   -0.13244E-08   290   0.486E-04
  59 F= -.35293014E+03 E0= -.35293014E+03  d E =-.669875E-03
 ZBRENT: can't locate minimum, use default step
 trial-energy change:   -0.000670  1 .order   -0.000666   -0.000700   -0.000633
 step:   0.8025(harm=  2.0978)  dis= 0.00311  next Energy=  -352.933129 (dE=-0.366E-02)
 bond charge predicted
       N       E                     dE             d eps       ncg     rms          rms(c)
RMM:   1    -0.351618240579E+03   -0.19959E-02   -0.40718E-01   804   0.187E+00    0.908E-02
RMM:   2    -0.351617753405E+03    0.48717E-03   -0.29006E-03   804   0.125E-01    0.152E-02
RMM:   3    -0.351617807770E+03   -0.54365E-04   -0.38457E-04   890   0.300E-02    0.118E-02
RMM:   4    -0.351617798078E+03    0.96921E-05   -0.23659E-05   805   0.955E-03    0.388E-03
RMM:   5    -0.351617797986E+03    0.91894E-07   -0.23424E-06   555   0.304E-03
  60 F= -.35293173E+03 E0= -.35293173E+03  d E =-.226137E-02
 curvature:  -2.54 expect dE=-0.377E-02 dE for cont linesearch -0.727E-03
 ZBRENT: increasing intervall
 opt :   2.0062  next Energy=  -352.933058 (dE=-0.359E-02)
 bond charge predicted
       N       E                     dE             d eps       ncg     rms          rms(c)
RMM:   1    -0.351620864724E+03   -0.30666E-02   -0.16288E+00   804   0.375E+00    0.181E-01
RMM:   2    -0.351618855466E+03    0.20093E-02   -0.11600E-02   804   0.250E-01    0.296E-02
RMM:   3    -0.351619060819E+03   -0.20535E-03   -0.14467E-03   902   0.563E-02    0.719E-03
RMM:   4    -0.351619066357E+03   -0.55381E-05   -0.20656E-05   828   0.908E-03    0.728E-03
RMM:   5    -0.351619067812E+03   -0.14556E-05   -0.39306E-06   605   0.351E-03    0.501E-03
RMM:   6    -0.351619072200E+03   -0.43873E-05   -0.12143E-06   516   0.240E-03    0.387E-03
RMM:   7    -0.351619072866E+03   -0.66632E-06   -0.24311E-07   516   0.118E-03
  61 F= -.35293309E+03 E0= -.35293309E+03  d E =-.362354E-02
 curvature:  -4.63 expect dE=-0.254E-01 dE for cont linesearch -0.323E-05
 trial: gam= 2.07375 g(F)=  0.550E-02 g(S)=  0.000E+00 ort = 0.105E-03 (trialstep = 0.120E+00)
 search vector abs. value=  0.739E-01
 bond charge predicted
       N       E                     dE             d eps       ncg     rms          rms(c)
RMM:   1    -0.351619811183E+03   -0.73898E-03   -0.13285E-01   804   0.104E+00    0.504E-02
[...]
 ZBRENT: increasing intervall
 opt :   1.2014  next Energy=  -352.935278 (dE=-0.218E-02)
 bond charge predicted
       N       E                     dE             d eps       ncg     rms          rms(c)
RMM:   1    -0.351626439925E+03   -0.55631E-02   -0.47894E+00   804   0.623E+00    0.299E-01
RMM:   2    -0.351620265110E+03    0.61748E-02   -0.34442E-02   804   0.428E-01    0.550E-02
RMM:   3    -0.351620856429E+03   -0.59132E-03   -0.42748E-03   887   0.964E-02    0.102E-02
RMM:   4    -0.351620875622E+03   -0.19194E-04   -0.75776E-05   849   0.161E-02    0.624E-03
RMM:   5    -0.351620886644E+03   -0.11022E-04   -0.16559E-05   734   0.634E-03    0.535E-03
RMM:   6    -0.351620888035E+03   -0.13915E-05   -0.66711E-07   518   0.188E-03    0.572E-03
RMM:   7    -0.351620890318E+03   -0.22824E-05   -0.57495E-07   516   0.161E-03    0.474E-03
RMM:   8    -0.351620890734E+03   -0.41655E-06   -0.24292E-07   516   0.119E-03
  64 F= -.35293540E+03 E0= -.35293540E+03  d E =-.230795E-02
 curvature:  -2.08 expect dE=-0.212E-01 dE for cont linesearch -0.873E-04
 ZBRENT: bracketing found
 ZBRENT: interpolating
 opt :   0.9103  next Energy=  -352.935658 (dE=-0.256E-02)
 bond charge predicted
       N       E                     dE             d eps       ncg     rms          rms(c)
RMM:   1    -0.351622116079E+03   -0.12258E-02   -0.78020E-01   804   0.251E+00    0.122E-01
RMM:   2    -0.351621162043E+03    0.95404E-03   -0.57510E-03   804   0.174E-01    0.214E-02
RMM:   3    -0.351621280096E+03   -0.11805E-03   -0.71306E-04   893   0.397E-02    0.555E-03
RMM:   4    -0.351621283364E+03   -0.32680E-05   -0.10204E-05   713   0.635E-03    0.415E-03
RMM:   5    -0.351621283745E+03   -0.38042E-06   -0.11858E-06   534   0.197E-03
  65 F= -.35293567E+03 E0= -.35293567E+03  d E =-.257758E-02
 curvature:  -6.11 expect dE=-0.350E-01 dE for cont linesearch -0.790E-07
 trial: gam= 0.96176 g(F)=  0.574E-02 g(S)=  0.000E+00 ort = 0.309E-04 (trialstep = 0.277E+00)
 search vector abs. value=  0.742E-01
 bond charge predicted
       N       E                     dE             d eps       ncg     rms          rms(c)
RMM:   1    -0.351623140189E+03   -0.18568E-02   -0.64239E-01   804   0.229E+00    0.119E-01
RMM:   2    -0.351621691932E+03    0.14483E-02   -0.48474E-03   804   0.159E-01    0.567E-02
RMM:   3    -0.351621888861E+03   -0.19693E-03   -0.83896E-04   862   0.495E-02    0.334E-02
RMM:   4    -0.351622236185E+03   -0.34732E-03   -0.24299E-04   821   0.308E-02    0.225E-02
RMM:   5    -0.351622378473E+03   -0.14229E-03   -0.17388E-05   802   0.892E-03    0.930E-03
RMM:   6    -0.351622445444E+03   -0.66971E-04   -0.27258E-05   804   0.107E-02    0.107E-02
RMM:   7    -0.351622439877E+03    0.55666E-05   -0.23714E-05   827   0.950E-03    0.755E-03
RMM:   8    -0.351622441479E+03   -0.16020E-05   -0.10582E-06   516   0.271E-03    0.551E-03
RMM:   9    -0.351622439800E+03    0.16792E-05   -0.30174E-06   587   0.408E-03    0.375E-03
RMM:  10    -0.351622437605E+03    0.21954E-05   -0.39640E-07   516   0.155E-03    0.359E-03
RMM:  11    -0.351622436114E+03    0.14910E-05   -0.12557E-07   491   0.884E-04    0.364E-03
RMM:  12    -0.351622436322E+03   -0.20861E-06   -0.82913E-09   249   0.472E-04
  66 F= -.35293697E+03 E0= -.35293697E+03  d E =-.129514E-02
 ZBRENT: can't locate minimum, use default step
 trial-energy change:   -0.001295  1 .order   -0.001306   -0.001598   -0.001013
 step:   1.1089(harm=  0.7575)  dis= 0.00852  next Energy=  -352.938231 (dE=-0.256E-02)
 bond charge predicted
       N       E                     dE             d eps       ncg     rms          rms(c)
RMM:   1    -0.351629060792E+03   -0.66247E-02   -0.57904E+00   804   0.688E+00    0.354E-01
RMM:   2    -0.351621622831E+03    0.74380E-02   -0.44633E-02   804   0.476E-01    0.632E-02
RMM:   3    -0.351622420092E+03   -0.79726E-03   -0.60233E-03   896   0.116E-01    0.227E-02
RMM:   4    -0.351622394220E+03    0.25872E-04   -0.10693E-04   845   0.198E-02    0.166E-02
RMM:   5    -0.351622388903E+03    0.53169E-05   -0.19488E-05   848   0.779E-03    0.143E-02
RMM:   6    -0.351622381833E+03    0.70703E-05   -0.22906E-06   527   0.352E-03    0.104E-02
RMM:   7    -0.351622375805E+03    0.60282E-05   -0.17848E-06   530   0.322E-03    0.675E-03
RMM:   8    -0.351622373880E+03    0.19253E-05   -0.12018E-06   516   0.258E-03    0.464E-03
RMM:   9    -0.351622373275E+03    0.60431E-06   -0.45920E-07   516   0.167E-03
  67 F= -.35293734E+03 E0= -.35293734E+03  d E =-.167045E-02
 curvature:  -2.26 expect dE=-0.408E-01 dE for cont linesearch -0.199E-03
 ZBRENT: interpolating
 opt :   0.7667  next Energy=  -352.937779 (dE=-0.211E-02)
 bond charge predicted
       N       E                     dE             d eps       ncg     rms          rms(c)
RMM:   1    -0.351624047288E+03   -0.16734E-02   -0.97877E-01   804   0.283E+00    0.148E-01
RMM:   2    -0.351622874980E+03    0.11723E-02   -0.77568E-03   804   0.199E-01    0.263E-02
RMM:   3    -0.351623017691E+03   -0.14271E-03   -0.98956E-04   908   0.462E-02    0.577E-03
RMM:   4    -0.351623023281E+03   -0.55897E-05   -0.10683E-05   755   0.683E-03    0.378E-03
RMM:   5    -0.351623023847E+03   -0.56678E-06   -0.76415E-07   519   0.174E-03
  68 F= -.35293781E+03 E0= -.35293781E+03  d E =-.213870E-02
 curvature:  -4.96 expect dE=-0.400E-01 dE for cont linesearch -0.948E-07
 trial: gam= 1.39335 g(F)=  0.805E-02 g(S)=  0.000E+00 ort =-0.376E-04 (trialstep = 0.183E+00)
 search vector abs. value=  0.152E+00
 bond charge predicted
       N       E                     dE             d eps       ncg     rms          rms(c)
RMM:   1    -0.351624709841E+03   -0.16866E-02   -0.54201E-01   804   0.211E+00    0.101E-01
RMM:   2    -0.351623637173E+03    0.10727E-02   -0.42015E-03   804   0.146E-01    0.394E-02
RMM:   3    -0.351623823002E+03   -0.18583E-03   -0.93463E-04   805   0.583E-02    0.613E-02
RMM:   4    -0.351623938251E+03   -0.11525E-03   -0.32352E-04   829   0.351E-02    0.172E-02
RMM:   5    -0.351624061803E+03   -0.12355E-03   -0.34726E-05   808   0.117E-02    0.732E-03
RMM:   6    -0.351624113477E+03   -0.51674E-04   -0.26660E-05   804   0.112E-02    0.106E-02
RMM:   7    -0.351624168124E+03   -0.54647E-04   -0.23470E-05   804   0.109E-02    0.763E-03
RMM:   8    -0.351624190508E+03   -0.22384E-04   -0.22115E-06   534   0.351E-03    0.616E-03
RMM:   9    -0.351624197521E+03   -0.70138E-05   -0.19499E-06   517   0.334E-03    0.408E-03
RMM:  10    -0.351624205443E+03   -0.79214E-05   -0.67503E-07   516   0.208E-03    0.364E-03
RMM:  11    -0.351624206208E+03   -0.76545E-06   -0.25083E-07   516   0.124E-03
  69 F= -.35293902E+03 E0= -.35293902E+03  d E =-.120973E-02
 trial-energy change:   -0.001210  1 .order   -0.001225   -0.001465   -0.000984
 step:   0.5586(harm=  0.5586)  dis= 0.00609  next Energy=  -352.940044 (dE=-0.223E-02)
 bond charge predicted
       N       E                     dE             d eps       ncg     rms          rms(c)
RMM:   1    -0.351627270016E+03   -0.30646E-02   -0.22803E+00   804   0.433E+00    0.207E-01
RMM:   2    -0.351624821899E+03    0.24481E-02   -0.17194E-02   804   0.296E-01    0.354E-02
RMM:   3    -0.351625161014E+03   -0.33912E-03   -0.22627E-03   901   0.684E-02    0.132E-02
RMM:   4    -0.351625149800E+03    0.11214E-04   -0.31918E-05   834   0.118E-02    0.986E-03
RMM:   5    -0.351625148272E+03    0.15281E-05   -0.37900E-06   590   0.365E-03    0.707E-03
RMM:   6    -0.351625151946E+03   -0.36744E-05   -0.12477E-06   516   0.260E-03    0.470E-03
RMM:   7    -0.351625152328E+03   -0.38167E-06   -0.52838E-07   516   0.168E-03
  70 F= -.35294003E+03 E0= -.35294003E+03  d E =-.221697E-02
 curvature:  -5.30 expect dE=-0.595E-02 dE for cont linesearch -0.147E-06
 trial: gam= 0.11499 g(F)=  0.112E-02 g(S)=  0.000E+00 ort = 0.650E-04 (trialstep = 0.258E+00)
 search vector abs. value=  0.315E-02
 bond charge predicted
       N       E                     dE             d eps       ncg     rms          rms(c)
RMM:   1    -0.351625390991E+03   -0.23904E-03   -0.21958E-02   804   0.425E-01    0.212E-02
RMM:   2    -0.351625282175E+03    0.10882E-03   -0.16627E-04   804   0.300E-02    0.186E-02
RMM:   3    -0.351625279890E+03    0.22844E-05   -0.29619E-05   810   0.107E-02    0.202E-02
RMM:   4    -0.351625299692E+03   -0.19802E-04   -0.73653E-05   804   0.182E-02    0.101E-02
RMM:   5    -0.351625327110E+03   -0.27417E-04   -0.76130E-06   730   0.636E-03    0.416E-03
RMM:   6    -0.351625338562E+03   -0.11452E-04   -0.37901E-06   653   0.441E-03    0.515E-03
RMM:   7    -0.351625350877E+03   -0.12315E-04   -0.37412E-07   516   0.151E-03    0.438E-03
RMM:   8    -0.351625353060E+03   -0.21822E-05   -0.37542E-07   516   0.144E-03    0.368E-03
RMM:   9    -0.351625356402E+03   -0.33427E-05   -0.47213E-07   516   0.171E-03    0.380E-03
RMM:  10    -0.351625358705E+03   -0.23026E-05   -0.40418E-08   373   0.627E-04    0.365E-03
RMM:  11    -0.351625358788E+03   -0.83342E-07   -0.22070E-08   324   0.514E-04
  71 F= -.35294026E+03 E0= -.35294026E+03  d E =-.238419E-03
 trial-energy change:   -0.000238  1 .order   -0.000237   -0.000292   -0.000182
 step:   0.6839(harm=  0.6839)  dis= 0.00147  next Energy=  -352.940413 (dE=-0.386E-03)
 bond charge predicted
       N       E                     dE             d eps       ncg     rms          rms(c)
RMM:   1    -0.351625546241E+03   -0.18754E-03   -0.59740E-02   804   0.700E-01    0.341E-02
RMM:   2    -0.351625443403E+03    0.10284E-03   -0.33428E-04   804   0.451E-02    0.558E-03
RMM:   3    -0.351625445543E+03   -0.21401E-05   -0.34970E-05   766   0.902E-03    0.413E-03
RMM:   4    -0.351625445001E+03    0.54202E-06   -0.11242E-06   529   0.237E-03
  72 F= -.35294040E+03 E0= -.35294040E+03  d E =-.377578E-03
 curvature:  -0.95 expect dE=-0.439E-03 dE for cont linesearch -0.529E-07
 trial: gam= 0.39965 g(F)=  0.461E-03 g(S)=  0.000E+00 ort = 0.132E-04 (trialstep = 0.343E+00)
 search vector abs. value=  0.974E-03
 bond charge predicted
       N       E                     dE             d eps       ncg     rms          rms(c)
RMM:   1    -0.351625620421E+03   -0.17488E-03   -0.13060E-02   804   0.326E-01    0.178E-02
RMM:   2    -0.351625542745E+03    0.77676E-04   -0.11456E-04   804   0.233E-02    0.175E-02
RMM:   3    -0.351625535791E+03    0.69546E-05   -0.43280E-05   805   0.133E-02    0.102E-02
RMM:   4    -0.351625546681E+03   -0.10890E-04   -0.19506E-05   804   0.916E-03    0.152E-02
RMM:   5    -0.351625541102E+03    0.55786E-05   -0.11365E-05   768   0.714E-03    0.644E-03
RMM:   6    -0.351625556567E+03   -0.15465E-04   -0.43573E-06   697   0.487E-03    0.433E-03
RMM:   7    -0.351625578111E+03   -0.21543E-04   -0.54776E-07   516   0.176E-03    0.392E-03
RMM:   8    -0.351625585548E+03   -0.74377E-05   -0.37790E-07   516   0.138E-03    0.365E-03
RMM:   9    -0.351625588659E+03   -0.31104E-05   -0.12595E-07   446   0.821E-04    0.369E-03
RMM:  10    -0.351625589780E+03   -0.11211E-05   -0.25726E-08   296   0.518E-04    0.362E-03
RMM:  11    -0.351625590022E+03   -0.24275E-06   -0.82058E-09   261   0.456E-04
  73 F= -.35294053E+03 E0= -.35294053E+03  d E =-.126233E-03
 trial-energy change:   -0.000126  1 .order   -0.000129   -0.000160   -0.000098
 step:   0.8899(harm=  0.8899)  dis= 0.00087  next Energy=  -352.940612 (dE=-0.208E-03)
 bond charge predicted
       N       E                     dE             d eps       ncg     rms          rms(c)
RMM:   1    -0.351625768699E+03   -0.17892E-03   -0.33093E-02   804   0.518E-01    0.283E-02
RMM:   2    -0.351625682990E+03    0.85709E-04   -0.19924E-04   804   0.352E-02    0.480E-03
RMM:   3    -0.351625686160E+03   -0.31703E-05   -0.16097E-05   705   0.669E-03    0.401E-03
RMM:   4    -0.351625690152E+03   -0.39917E-05   -0.70796E-07   516   0.209E-03    0.379E-03
RMM:   5    -0.351625692798E+03   -0.26462E-05   -0.45874E-07   516   0.144E-03    0.365E-03
RMM:   6    -0.351625694825E+03   -0.20275E-05   -0.15837E-07   427   0.897E-04    0.363E-03
RMM:   7    -0.351625696084E+03   -0.12588E-05   -0.34676E-08   302   0.534E-04    0.362E-03
RMM:   8    -0.351625696781E+03   -0.69702E-06   -0.55412E-09   245   0.461E-04
  74 F= -.35294061E+03 E0= -.35294061E+03  d E =-.203073E-03
 curvature:  -0.93 expect dE=-0.494E-03 dE for cont linesearch -0.594E-07
 trial: gam= 1.19363 g(F)=  0.532E-03 g(S)=  0.000E+00 ort =-0.789E-05 (trialstep = 0.232E+00)
 search vector abs. value=  0.190E-02
 bond charge predicted
       N       E                     dE             d eps       ncg     rms          rms(c)
RMM:   1    -0.351625803195E+03   -0.10711E-03   -0.12284E-02   804   0.318E-01    0.161E-02
RMM:   2    -0.351625739902E+03    0.63293E-04   -0.14166E-04   804   0.246E-02    0.136E-02
RMM:   3    -0.351625757753E+03   -0.17851E-04   -0.15590E-05   826   0.755E-03    0.942E-03
RMM:   4    -0.351625771264E+03   -0.13511E-04   -0.59433E-06   735   0.540E-03    0.559E-03
RMM:   5    -0.351625777209E+03   -0.59457E-05   -0.33579E-06   625   0.394E-03    0.400E-03
RMM:   6    -0.351625779784E+03   -0.25745E-05   -0.24951E-07   516   0.126E-03    0.374E-03
RMM:   7    -0.351625781569E+03   -0.17850E-05   -0.44448E-07   516   0.139E-03    0.365E-03
RMM:   8    -0.351625782719E+03   -0.11504E-05   -0.41569E-08   389   0.602E-04    0.361E-03
RMM:   9    -0.351625782871E+03   -0.15213E-06   -0.11862E-08   268   0.470E-04
  75 F= -.35294071E+03 E0= -.35294071E+03  d E =-.103774E-03
 trial-energy change:   -0.000104  1 .order   -0.000100   -0.000121   -0.000079
 step:   0.6709(harm=  0.6709)  dis= 0.00077  next Energy=  -352.940783 (dE=-0.175E-03)
 bond charge predicted
       N       E                     dE             d eps       ncg     rms          rms(c)
RMM:   1    -0.351625905738E+03   -0.12302E-03   -0.43970E-02   804   0.601E-01    0.298E-02
RMM:   2    -0.351625822048E+03    0.83691E-04   -0.30811E-04   804   0.396E-02    0.576E-03
RMM:   3    -0.351625828944E+03   -0.68966E-05   -0.36489E-05   792   0.870E-03    0.442E-03
RMM:   4    -0.351625827839E+03    0.11048E-05   -0.60567E-07   516   0.189E-03    0.402E-03
RMM:   5    -0.351625827313E+03    0.52658E-06   -0.30383E-07   516   0.126E-03
  76 F= -.35294079E+03 E0= -.35294079E+03  d E =-.181720E-03
 curvature:  -1.22 expect dE=-0.444E-03 dE for cont linesearch -0.882E-08
 trial: gam= 0.64089 g(F)=  0.364E-03 g(S)=  0.000E+00 ort =-0.371E-05 (trialstep = 0.320E+00)
 search vector abs. value=  0.114E-02
 bond charge predicted
       N       E                     dE             d eps       ncg     rms          rms(c)
RMM:   1    -0.351625912267E+03   -0.84428E-04   -0.15395E-02   804   0.356E-01    0.169E-02
RMM:   2    -0.351625663903E+03    0.24836E-03   -0.18406E-04   804   0.309E-02    0.179E-02
RMM:   3    -0.351625801372E+03   -0.13747E-03   -0.12137E-04   804   0.202E-02    0.161E-02
RMM:   4    -0.351625861349E+03   -0.59977E-04   -0.11756E-05   785   0.827E-03    0.850E-03
RMM:   5    -0.351625890241E+03   -0.28892E-04   -0.59250E-06   698   0.518E-03    0.460E-03
RMM:   6    -0.351625899156E+03   -0.89155E-05   -0.67083E-07   516   0.195E-03    0.379E-03
RMM:   7    -0.351625899445E+03   -0.28849E-06   -0.33947E-07   514   0.121E-03
  77 F= -.35294087E+03 E0= -.35294087E+03  d E =-.766765E-04
 trial-energy change:   -0.000077  1 .order   -0.000068   -0.000116   -0.000020
 step:   0.3623(harm=  0.3887)  dis= 0.00037  next Energy=  -352.940867 (dE=-0.781E-04)
 bond charge predicted
       N       E                     dE             d eps       ncg     rms          rms(c)
RMM:   1    -0.351625898954E+03    0.20254E-06   -0.27031E-04   804   0.474E-02    0.429E-03
RMM:   2    -0.351625898710E+03    0.24375E-06   -0.16414E-06   524   0.323E-03    0.380E-03
RMM:   3    -0.351625897847E+03    0.86262E-06   -0.34359E-07   516   0.129E-03    0.369E-03
RMM:   4    -0.351625897782E+03    0.65067E-07   -0.18012E-07   417   0.934E-04
  78 F= -.35294086E+03 E0= -.35294086E+03  d E =-.756246E-04
 curvature:  -0.52 expect dE=-0.375E-04 dE for cont linesearch -0.812E-07
 trial: gam= 0.14158 g(F)=  0.717E-04 g(S)=  0.000E+00 ort = 0.133E-04 (trialstep = 0.328E+00)
 search vector abs. value=  0.983E-04
 bond charge predicted
       N       E                     dE             d eps       ncg     rms          rms(c)
RMM:   1    -0.351625927274E+03   -0.29427E-04   -0.79887E-04   804   0.810E-02    0.569E-03
RMM:   2    -0.351625930647E+03   -0.33726E-05   -0.80839E-06   723   0.641E-03    0.574E-03
RMM:   3    -0.351625930790E+03   -0.14356E-06   -0.58477E-06   671   0.513E-03    0.611E-03
RMM:   4    -0.351625926161E+03    0.46294E-05   -0.16715E-06   517   0.299E-03    0.446E-03
RMM:   5    -0.351625927286E+03   -0.11251E-05   -0.33407E-06   620   0.349E-03    0.403E-03
RMM:   6    -0.351625928028E+03   -0.74187E-06   -0.79846E-07   516   0.199E-03
  79 F= -.35294089E+03 E0= -.35294089E+03  d E =-.239614E-04
 ZBRENT: can't locate minimum, use default step
 trial-energy change:   -0.000024  1 .order   -0.000022   -0.000024   -0.000019
 step:   1.3130(harm=  1.6669)  dis= 0.00060  next Energy=  -352.940926 (dE=-0.613E-04)
 bond charge predicted
       N       E                     dE             d eps       ncg     rms          rms(c)
RMM:   1    -0.351625995738E+03   -0.68452E-04   -0.71777E-03   804   0.243E-01    0.144E-02
RMM:   2    -0.351625993095E+03    0.26432E-05   -0.42157E-05   804   0.162E-02    0.639E-03
RMM:   3    -0.351625994531E+03   -0.14362E-05   -0.57228E-06   703   0.431E-03    0.446E-03
RMM:   4    -0.351625995210E+03   -0.67961E-06   -0.94537E-07   516   0.226E-03
  80 F= -.35294094E+03 E0= -.35294094E+03  d E =-.723134E-04
 curvature:  -1.04 expect dE=-0.374E-04 dE for cont linesearch -0.193E-05
 trial: gam= 0.35989 g(F)=  0.361E-04 g(S)=  0.000E+00 ort = 0.135E-04 (trialstep = 0.525E+00)
 search vector abs. value=  0.586E-04
 bond charge predicted
       N       E                     dE             d eps       ncg     rms          rms(c)
RMM:   1    -0.351626008658E+03   -0.14127E-04   -0.56897E-04   804   0.699E-02    0.840E-03
RMM:   2    -0.351625974363E+03    0.34294E-04   -0.51989E-06   692   0.594E-03    0.522E-03
RMM:   3    -0.351625967802E+03    0.65611E-05   -0.12374E-05   757   0.699E-03    0.724E-03
RMM:   4    -0.351625989679E+03   -0.21877E-04   -0.79986E-06   716   0.553E-03    0.388E-03
RMM:   5    -0.351625995716E+03   -0.60371E-05   -0.71123E-07   516   0.198E-03    0.368E-03
RMM:   6    -0.351625999272E+03   -0.35553E-05   -0.14025E-07   516   0.997E-04    0.366E-03
RMM:   7    -0.351625999772E+03   -0.49987E-06   -0.12122E-07   516   0.906E-04
  81 F= -.35294094E+03 E0= -.35294094E+03  d E =-.478965E-05
 trial-energy change:   -0.000005  1 .order   -0.000015   -0.000022   -0.000008
 step:   0.8564(harm=  0.8564)  dis= 0.00023  next Energy=  -352.940954 (dE=-0.176E-04)
 bond charge predicted
       N       E                     dE             d eps       ncg     rms          rms(c)
RMM:   1    -0.351626003343E+03   -0.40715E-05   -0.22443E-04   804   0.440E-02    0.542E-03
RMM:   2    -0.351625997464E+03    0.58795E-05   -0.16527E-06   517   0.360E-03    0.365E-03
RMM:   3    -0.351625997244E+03    0.21979E-06   -0.23998E-07   516   0.130E-03    0.361E-03
RMM:   4    -0.351625999579E+03   -0.23350E-05   -0.13344E-07   506   0.852E-04    0.361E-03
RMM:   5    -0.351626002663E+03   -0.30835E-05   -0.16203E-08   278   0.412E-04    0.361E-03
RMM:   6    -0.351626003704E+03   -0.10413E-05   -0.19159E-08   286   0.478E-04    0.362E-03
RMM:   7    -0.351626004161E+03   -0.45705E-06    0.00000E+00   209   0.343E-04
  82 F= -.35294095E+03 E0= -.35294095E+03  d E =-.933064E-05
 curvature:  -0.61 expect dE=-0.273E-04 dE for cont linesearch -0.322E-09
 trial: gam= 1.40547 g(F)=  0.446E-04 g(S)=  0.000E+00 ort =-0.176E-06 (trialstep = 0.217E+00)
 search vector abs. value=  0.160E-03
 reached required accuracy - stopping structural energy minimisation
 writing wavefunctions
