  93  93   0   0
  0.1016658E+02  0.9814900E-09  0.9814900E-09  0.9814900E-09  0.5000000E-15
  1.000000000000000E-004
  CAR 
 ice                                     
      9.57459213    -25.58511061  301     -1.44200027      1.00000000
    -25.585  0.0000E+00  0.0000E+00
    -25.468  0.0000E+00  0.0000E+00
    -25.351  0.0000E+00  0.0000E+00
    -25.234  0.0000E+00  0.0000E+00
    -25.116  0.0000E+00  0.0000E+00
    -24.999  0.0000E+00  0.0000E+00
    -24.882  0.0000E+00  0.0000E+00
    -24.765  0.0000E+00  0.0000E+00
    -24.648  0.0000E+00  0.0000E+00
    -24.530  0.0000E+00  0.0000E+00
    -24.413  0.3359E-02  0.3937E-03
    -24.296  0.3159E-01  0.4095E-02
    -24.179  0.3224E+00  0.4188E-01
    -24.062  0.2753E+01  0.3646E+00
    -23.944  0.8823E+01  0.1399E+01
    -23.827  0.4495E+01  0.1925E+01
    -23.710  0.9814E+00  0.2040E+01
    -23.593  0.3157E+01  0.2410E+01
    -23.476  0.9150E+01  0.3484E+01
    -23.358  0.6046E+01  0.4192E+01
    -23.241  0.1003E+02  0.5368E+01
    -23.124  0.1370E+02  0.6979E+01
    -23.007  0.1069E+02  0.8232E+01
    -22.890  0.1254E+02  0.9702E+01
    -22.772  0.1457E+02  0.1141E+02
    -22.655  0.1566E+02  0.1325E+02
    -22.538  0.2364E+02  0.1602E+02
    -22.421  0.3213E+02  0.1978E+02
    -22.304  0.3603E+02  0.2401E+02
    -22.186  0.2525E+02  0.2697E+02
    -22.069  0.1877E+02  0.2917E+02
    -21.952  0.2392E+02  0.3199E+02
    -21.835  0.3565E+02  0.3617E+02
    -21.718  0.3375E+02  0.4012E+02
    -21.600  0.2234E+02  0.4274E+02
    -21.483  0.2191E+02  0.4532E+02
    -21.366  0.1910E+02  0.4756E+02
    -21.249  0.2265E+02  0.5022E+02
    -21.132  0.1702E+02  0.5222E+02
    -21.014  0.1157E+02  0.5358E+02
    -20.897  0.3162E+01  0.5395E+02
    -20.780  0.3586E+00  0.5400E+02
    -20.663  0.1283E+00  0.5402E+02
    -20.546  0.1231E+01  0.5416E+02
    -20.428  0.6774E+01  0.5495E+02
    -20.311  0.7401E+01  0.5582E+02
    -20.194  0.2422E+01  0.5611E+02
    -20.077  0.6295E+01  0.5684E+02
    -19.960  0.1061E+02  0.5809E+02
    -19.842  0.1534E+02  0.5989E+02
    -19.725  0.1464E+02  0.6160E+02
    -19.608  0.3008E+01  0.6196E+02
    -19.491  0.3230E+00  0.6200E+02
    -19.374  0.0000E+00  0.6200E+02
    -19.256  0.0000E+00  0.6200E+02
    -19.139  0.0000E+00  0.6200E+02
    -19.022  0.0000E+00  0.6200E+02
    -18.905  0.0000E+00  0.6200E+02
    -18.788  0.0000E+00  0.6200E+02
    -18.670  0.0000E+00  0.6200E+02
    -18.553  0.0000E+00  0.6200E+02
    -18.436  0.0000E+00  0.6200E+02
    -18.319  0.0000E+00  0.6200E+02
    -18.202  0.0000E+00  0.6200E+02
    -18.084  0.0000E+00  0.6200E+02
    -17.967  0.0000E+00  0.6200E+02
    -17.850  0.0000E+00  0.6200E+02
    -17.733  0.0000E+00  0.6200E+02
    -17.616  0.0000E+00  0.6200E+02
    -17.498  0.0000E+00  0.6200E+02
    -17.381  0.0000E+00  0.6200E+02
    -17.264  0.0000E+00  0.6200E+02
    -17.147  0.0000E+00  0.6200E+02
    -17.030  0.0000E+00  0.6200E+02
    -16.912  0.0000E+00  0.6200E+02
    -16.795  0.0000E+00  0.6200E+02
    -16.678  0.0000E+00  0.6200E+02
    -16.561  0.0000E+00  0.6200E+02
    -16.444  0.0000E+00  0.6200E+02
    -16.326  0.0000E+00  0.6200E+02
    -16.209  0.0000E+00  0.6200E+02
    -16.092  0.0000E+00  0.6200E+02
    -15.975  0.0000E+00  0.6200E+02
    -15.858  0.0000E+00  0.6200E+02
    -15.740  0.0000E+00  0.6200E+02
    -15.623  0.0000E+00  0.6200E+02
    -15.506  0.0000E+00  0.6200E+02
    -15.389  0.0000E+00  0.6200E+02
    -15.272  0.0000E+00  0.6200E+02
    -15.154  0.0000E+00  0.6200E+02
    -15.037  0.0000E+00  0.6200E+02
    -14.920  0.0000E+00  0.6200E+02
    -14.803  0.0000E+00  0.6200E+02
    -14.686  0.0000E+00  0.6200E+02
    -14.568  0.0000E+00  0.6200E+02
    -14.451  0.0000E+00  0.6200E+02
    -14.334  0.0000E+00  0.6200E+02
    -14.217  0.0000E+00  0.6200E+02
    -14.100  0.0000E+00  0.6200E+02
    -13.982  0.0000E+00  0.6200E+02
    -13.865  0.0000E+00  0.6200E+02
    -13.748  0.0000E+00  0.6200E+02
    -13.631  0.0000E+00  0.6200E+02
    -13.514  0.0000E+00  0.6200E+02
    -13.396  0.0000E+00  0.6200E+02
    -13.279  0.0000E+00  0.6200E+02
    -13.162  0.0000E+00  0.6200E+02
    -13.045  0.0000E+00  0.6200E+02
    -12.928  0.0000E+00  0.6200E+02
    -12.810  0.0000E+00  0.6200E+02
    -12.693  0.0000E+00  0.6200E+02
    -12.576  0.3067E-02  0.6200E+02
    -12.459  0.2885E-01  0.6200E+02
    -12.342  0.2949E+00  0.6204E+02
    -12.224  0.2558E+01  0.6234E+02
    -12.107  0.8705E+01  0.6336E+02
    -11.990  0.4741E+01  0.6391E+02
    -11.873  0.7268E+00  0.6400E+02
    -11.756  0.6674E+00  0.6408E+02
    -11.638  0.4413E+01  0.6460E+02
    -11.521  0.8835E+01  0.6563E+02
    -11.404  0.2787E+01  0.6596E+02
    -11.287  0.3343E+00  0.6600E+02
    -11.170  0.7419E-01  0.6601E+02
    -11.052  0.7464E+00  0.6610E+02
    -10.935  0.5953E+01  0.6679E+02
    -10.818  0.1895E+02  0.6902E+02
    -10.701  0.1946E+02  0.7130E+02
    -10.584  0.1096E+02  0.7258E+02
    -10.466  0.1843E+02  0.7474E+02
    -10.349  0.2934E+02  0.7819E+02
    -10.232  0.3076E+02  0.8179E+02
    -10.115  0.3386E+02  0.8577E+02
     -9.998  0.3081E+02  0.8938E+02
     -9.880  0.2794E+02  0.9266E+02
     -9.763  0.2349E+02  0.9542E+02
     -9.646  0.2669E+02  0.9855E+02
     -9.529  0.2671E+02  0.1017E+03
     -9.412  0.1847E+02  0.1039E+03
     -9.294  0.2055E+02  0.1063E+03
     -9.177  0.1454E+02  0.1080E+03
     -9.060  0.1458E+02  0.1097E+03
     -8.943  0.2702E+02  0.1129E+03
     -8.826  0.2003E+02  0.1152E+03
     -8.708  0.1261E+02  0.1167E+03
     -8.591  0.1333E+02  0.1183E+03
     -8.474  0.1589E+02  0.1201E+03
     -8.357  0.1502E+02  0.1219E+03
     -8.240  0.1305E+02  0.1234E+03
     -8.122  0.1430E+02  0.1251E+03
     -8.005  0.1592E+02  0.1270E+03
     -7.888  0.1074E+02  0.1282E+03
     -7.771  0.1559E+02  0.1300E+03
     -7.654  0.2435E+02  0.1329E+03
     -7.536  0.1859E+02  0.1351E+03
     -7.419  0.2108E+02  0.1376E+03
     -7.302  0.2685E+02  0.1407E+03
     -7.185  0.2280E+02  0.1434E+03
     -7.068  0.1985E+02  0.1457E+03
     -6.950  0.1925E+02  0.1480E+03
     -6.833  0.2047E+02  0.1504E+03
     -6.716  0.2163E+02  0.1529E+03
     -6.599  0.1895E+02  0.1551E+03
     -6.482  0.1819E+02  0.1573E+03
     -6.364  0.1738E+02  0.1593E+03
     -6.247  0.1928E+02  0.1616E+03
     -6.130  0.2443E+02  0.1644E+03
     -6.013  0.2344E+02  0.1672E+03
     -5.896  0.1832E+02  0.1693E+03
     -5.778  0.1945E+02  0.1716E+03
     -5.661  0.2311E+02  0.1743E+03
     -5.544  0.2185E+02  0.1769E+03
     -5.427  0.2185E+02  0.1795E+03
     -5.310  0.1827E+02  0.1816E+03
     -5.192  0.1493E+02  0.1834E+03
     -5.075  0.1760E+02  0.1854E+03
     -4.958  0.2120E+02  0.1879E+03
     -4.841  0.2860E+02  0.1913E+03
     -4.724  0.2595E+02  0.1943E+03
     -4.606  0.2677E+02  0.1974E+03
     -4.489  0.4182E+02  0.2024E+03
     -4.372  0.5764E+02  0.2091E+03
     -4.255  0.6052E+02  0.2162E+03
     -4.138  0.4680E+02  0.2217E+03
     -4.020  0.3474E+02  0.2258E+03
     -3.903  0.3359E+02  0.2297E+03
     -3.786  0.3905E+02  0.2343E+03
     -3.669  0.3135E+02  0.2380E+03
     -3.552  0.2272E+02  0.2407E+03
     -3.434  0.1567E+02  0.2425E+03
     -3.317  0.1284E+02  0.2440E+03
     -3.200  0.1139E+02  0.2453E+03
     -3.083  0.4842E+01  0.2459E+03
     -2.966  0.7080E+00  0.2460E+03
     -2.849  0.8523E+00  0.2461E+03
     -2.731  0.5284E+01  0.2467E+03
     -2.614  0.8426E+01  0.2477E+03
     -2.497  0.2203E+01  0.2480E+03
     -2.380  0.2469E+00  0.2480E+03
     -2.263  0.0000E+00  0.2480E+03
     -2.145  0.0000E+00  0.2480E+03
     -2.028  0.0000E+00  0.2480E+03
     -1.911  0.0000E+00  0.2480E+03
     -1.794  0.0000E+00  0.2480E+03
     -1.677  0.0000E+00  0.2480E+03
     -1.559  0.0000E+00  0.2480E+03
     -1.442  0.0000E+00  0.2480E+03
     -1.325  0.0000E+00  0.2480E+03
     -1.208  0.0000E+00  0.2480E+03
     -1.091  0.0000E+00  0.2480E+03
     -0.973  0.0000E+00  0.2480E+03
     -0.856  0.0000E+00  0.2480E+03
     -0.739  0.0000E+00  0.2480E+03
     -0.622  0.0000E+00  0.2480E+03
     -0.505  0.0000E+00  0.2480E+03
     -0.387  0.0000E+00  0.2480E+03
     -0.270  0.0000E+00  0.2480E+03
     -0.153  0.0000E+00  0.2480E+03
     -0.036  0.0000E+00  0.2480E+03
      0.081  0.0000E+00  0.2480E+03
      0.199  0.4445E-05  0.2480E+03
      0.316  0.1582E-03  0.2480E+03
      0.433  0.1683E-02  0.2480E+03
      0.550  0.1740E-01  0.2480E+03
      0.667  0.1521E+00  0.2480E+03
      0.785  0.7145E+00  0.2481E+03
      0.902  0.1587E+01  0.2483E+03
      1.019  0.2571E+01  0.2486E+03
      1.136  0.3670E+01  0.2490E+03
      1.253  0.3989E+01  0.2495E+03
      1.371  0.3066E+01  0.2498E+03
      1.488  0.1960E+01  0.2501E+03
      1.605  0.2748E+01  0.2504E+03
      1.722  0.4840E+01  0.2510E+03
      1.839  0.5279E+01  0.2516E+03
      1.957  0.3387E+01  0.2520E+03
      2.074  0.3265E+01  0.2524E+03
      2.191  0.5361E+01  0.2530E+03
      2.308  0.6620E+01  0.2538E+03
      2.425  0.6619E+01  0.2546E+03
      2.543  0.6732E+01  0.2553E+03
      2.660  0.7390E+01  0.2562E+03
      2.777  0.7733E+01  0.2571E+03
      2.894  0.7856E+01  0.2580E+03
      3.011  0.7282E+01  0.2589E+03
      3.129  0.9201E+01  0.2600E+03
      3.246  0.1009E+02  0.2612E+03
      3.363  0.9734E+01  0.2623E+03
      3.480  0.9732E+01  0.2634E+03
      3.597  0.1064E+02  0.2647E+03
      3.715  0.1153E+02  0.2660E+03
      3.832  0.1238E+02  0.2675E+03
      3.949  0.1270E+02  0.2690E+03
      4.066  0.1293E+02  0.2705E+03
      4.183  0.1276E+02  0.2720E+03
      4.301  0.1309E+02  0.2735E+03
      4.418  0.1405E+02  0.2752E+03
      4.535  0.1431E+02  0.2769E+03
      4.652  0.1485E+02  0.2786E+03
      4.769  0.1538E+02  0.2804E+03
      4.887  0.1618E+02  0.2823E+03
      5.004  0.1753E+02  0.2844E+03
      5.121  0.1827E+02  0.2865E+03
      5.238  0.1926E+02  0.2888E+03
      5.355  0.1979E+02  0.2911E+03
      5.473  0.2032E+02  0.2935E+03
      5.590  0.2090E+02  0.2959E+03
      5.707  0.2142E+02  0.2984E+03
      5.824  0.2320E+02  0.3012E+03
      5.941  0.2390E+02  0.3040E+03
      6.059  0.2400E+02  0.3068E+03
      6.176  0.2510E+02  0.3097E+03
      6.293  0.2635E+02  0.3128E+03
      6.410  0.2705E+02  0.3160E+03
      6.527  0.2639E+02  0.3191E+03
      6.645  0.2617E+02  0.3222E+03
      6.762  0.2447E+02  0.3250E+03
      6.879  0.2322E+02  0.3278E+03
      6.996  0.2319E+02  0.3305E+03
      7.113  0.2270E+02  0.3331E+03
      7.231  0.2102E+02  0.3356E+03
      7.348  0.1881E+02  0.3378E+03
      7.465  0.1640E+02  0.3397E+03
      7.582  0.1415E+02  0.3414E+03
      7.699  0.1146E+02  0.3428E+03
      7.817  0.7121E+01  0.3436E+03
      7.934  0.2768E+01  0.3439E+03
      8.051  0.5813E+00  0.3440E+03
      8.168  0.6349E-01  0.3440E+03
      8.285  0.3086E-02  0.3440E+03
      8.403  0.0000E+00  0.3440E+03
      8.520  0.0000E+00  0.3440E+03
      8.637  0.0000E+00  0.3440E+03
      8.754  0.0000E+00  0.3440E+03
      8.871  0.0000E+00  0.3440E+03
      8.989  0.0000E+00  0.3440E+03
      9.106  0.0000E+00  0.3440E+03
      9.223  0.0000E+00  0.3440E+03
      9.340  0.0000E+00  0.3440E+03
      9.457  0.0000E+00  0.3440E+03
      9.575  0.0000E+00  0.3440E+03
