Loading vasp/5.4.4-mpi-cuda
  Loading requirement: gcc/8.5.0 intel-compilers/19.0.4 cuda/10.1.1
    intel-mpi/2019.4
 running on   40 total cores
 distrk:  each k-point on   40 cores,    1 groups
 distr:  one band on   20 cores,    2 groups
 using from now: INCAR     
 vasp.5.4.4.18Apr17-6-g9f103f2a35 (build Dec 06 2019 17:20:26) complex          
  
 POSCAR found type information on POSCAR  O  H 
 POSCAR found :  2 types and      93 ions
 scaLAPACK will be used

 ----------------------------------------------------------------------------- 
|                                                                             |
|           W    W    AA    RRRRR   N    N  II  N    N   GGGG   !!!           |
|           W    W   A  A   R    R  NN   N  II  NN   N  G    G  !!!           |
|           W    W  A    A  R    R  N N  N  II  N N  N  G       !!!           |
|           W WW W  AAAAAA  RRRRR   N  N N  II  N  N N  G  GGG   !            |
|           WW  WW  A    A  R   R   N   NN  II  N   NN  G    G                |
|           W    W  A    A  R    R  N    N  II  N    N   GGGG   !!!           |
|                                                                             |
|      For optimal performance we recommend to set                            |
|        NCORE= 4 - approx SQRT( number of cores)                             |
|      NCORE specifies how many cores store one orbital (NPAR=cpu/NCORE).     |
|      This setting can  greatly improve the performance of VASP for DFT.     |
|      The default,   NCORE=1            might be grossly inefficient         |
|      on modern multi-core architectures or massively parallel machines.     |
|      Do your own testing !!!!                                               |
|      Unfortunately you need to use the default for GW and RPA calculations. |
|      (for HF NCORE is supported but not extensively tested yet)             |
|                                                                             |
 ----------------------------------------------------------------------------- 

 LDA part: xc-table for Pade appr. of Perdew
 POSCAR, INCAR and KPOINTS ok, starting setup
 FFT: planning ...
 WAVECAR not read
 WARNING: chargedensity file is incomplete
 WARNING: random wavefunctions but no delay for mixing, default for NELMDL
 entering main loop
       N       E                     dE             d eps       ncg     rms          rms(c)
RMM:   1     0.332257137723E+04    0.33226E+04   -0.74378E+04 86688   0.878E+02
RMM:   2     0.105134684692E+04   -0.22712E+04   -0.24374E+04 86688   0.253E+02
RMM:   3     0.859861035067E+02   -0.96536E+03   -0.10264E+04 86688   0.187E+02
RMM:   4    -0.344935271264E+03   -0.43092E+03   -0.36666E+03 86688   0.130E+02
RMM:   5    -0.451911051990E+03   -0.10698E+03   -0.97508E+02 86688   0.684E+01
RMM:   6    -0.479399860546E+03   -0.27489E+02   -0.25101E+02 86688   0.353E+01
RMM:   7    -0.486696516801E+03   -0.72967E+01   -0.69880E+01 86688   0.179E+01
RMM:   8    -0.488884765779E+03   -0.21882E+01   -0.20623E+01 86688   0.958E+00
RMM:   9    -0.489744435972E+03   -0.85967E+00   -0.84412E+00221737   0.508E+00
RMM:  10    -0.489863412535E+03   -0.11898E+00   -0.11212E+00235527   0.147E+00
RMM:  11    -0.489865620269E+03   -0.22077E-02   -0.37935E-02221797   0.312E-01
RMM:  12    -0.489866250310E+03   -0.63004E-03   -0.61805E-03222948   0.809E-02    0.398E+01
RMM:  13    -0.448268674573E+03    0.41598E+02   -0.14745E+02209870   0.243E+01    0.153E+01
RMM:  14    -0.447037828908E+03    0.12308E+01   -0.54586E+00218109   0.417E+00    0.965E+00
RMM:  15    -0.446532790844E+03    0.50504E+00   -0.16545E+00215076   0.357E+00    0.135E+00
RMM:  16    -0.446489365624E+03    0.43425E-01   -0.29303E-01221760   0.963E-01    0.526E-01
RMM:  17    -0.446499809652E+03   -0.10444E-01   -0.36988E-02208654   0.375E-01    0.292E-01
RMM:  18    -0.446498020144E+03    0.17895E-02   -0.84182E-03213926   0.205E-01    0.826E-02
RMM:  19    -0.446497428614E+03    0.59153E-03   -0.19677E-03218322   0.756E-02    0.346E-02
RMM:  20    -0.446497271987E+03    0.15663E-03   -0.49372E-04219409   0.366E-02    0.180E-02
RMM:  21    -0.446497253575E+03    0.18411E-04   -0.73824E-05221984   0.141E-02    0.803E-03
RMM:  22    -0.446497249129E+03    0.44466E-05   -0.19207E-05205217   0.776E-03    0.363E-03
RMM:  23    -0.446497248800E+03    0.32846E-06   -0.30975E-06173582   0.345E-03
   1 F= -.44957318E+03 E0= -.44957318E+03  d E =-.293548E-10
