  72  72   0   0
  0.1278396E+03  0.1469770E-08  0.1469770E-08  0.4920040E-08  0.5000000E-15
  1.000000000000000E-004
  CAR 
 ice                                     
      1.91271998    -26.75269187  301     -5.34913770      1.00000000
    -26.753  0.0000E+00  0.0000E+00
    -26.657  0.0000E+00  0.0000E+00
    -26.562  0.0000E+00  0.0000E+00
    -26.466  0.0000E+00  0.0000E+00
    -26.370  0.0000E+00  0.0000E+00
    -26.275  0.0000E+00  0.0000E+00
    -26.179  0.0000E+00  0.0000E+00
    -26.084  0.0000E+00  0.0000E+00
    -25.988  0.0000E+00  0.0000E+00
    -25.893  0.1477E-05  0.1411E-06
    -25.797  0.1421E-04  0.1499E-05
    -25.702  0.9654E-04  0.1072E-04
    -25.606  0.6394E-03  0.7182E-04
    -25.511  0.3819E-02  0.4368E-03
    -25.415  0.1507E-01  0.1877E-02
    -25.319  0.2953E-01  0.4698E-02
    -25.224  0.3570E-01  0.8110E-02
    -25.128  0.4159E-01  0.1208E-01
    -25.033  0.5298E-01  0.1715E-01
    -24.937  0.4716E-01  0.2166E-01
    -24.842  0.1958E-01  0.2353E-01
    -24.746  0.4235E-02  0.2394E-01
    -24.651  0.1423E-02  0.2408E-01
    -24.555  0.5036E-02  0.2457E-01
    -24.459  0.2193E-01  0.2666E-01
    -24.364  0.4745E-01  0.3120E-01
    -24.268  0.4926E-01  0.3591E-01
    -24.173  0.3744E-01  0.3948E-01
    -24.077  0.3170E-01  0.4251E-01
    -23.982  0.2891E-01  0.4528E-01
    -23.886  0.1955E-01  0.4716E-01
    -23.791  0.7119E-02  0.4784E-01
    -23.695  0.1398E-02  0.4798E-01
    -23.599  0.1918E-03  0.4800E-01
    -23.504  0.1907E-05  0.4800E-01
    -23.408  0.0000E+00  0.4800E-01
    -23.313  0.0000E+00  0.4800E-01
    -23.217  0.0000E+00  0.4800E-01
    -23.122  0.0000E+00  0.4800E-01
    -23.026  0.0000E+00  0.4800E-01
    -22.931  0.0000E+00  0.4800E-01
    -22.835  0.0000E+00  0.4800E-01
    -22.740  0.0000E+00  0.4800E-01
    -22.644  0.0000E+00  0.4800E-01
    -22.548  0.0000E+00  0.4800E-01
    -22.453  0.0000E+00  0.4800E-01
    -22.357  0.0000E+00  0.4800E-01
    -22.262  0.0000E+00  0.4800E-01
    -22.166  0.0000E+00  0.4800E-01
    -22.071  0.0000E+00  0.4800E-01
    -21.975  0.0000E+00  0.4800E-01
    -21.880  0.0000E+00  0.4800E-01
    -21.784  0.0000E+00  0.4800E-01
    -21.688  0.0000E+00  0.4800E-01
    -21.593  0.0000E+00  0.4800E-01
    -21.497  0.0000E+00  0.4800E-01
    -21.402  0.0000E+00  0.4800E-01
    -21.306  0.0000E+00  0.4800E-01
    -21.211  0.0000E+00  0.4800E-01
    -21.115  0.0000E+00  0.4800E-01
    -21.020  0.0000E+00  0.4800E-01
    -20.924  0.0000E+00  0.4800E-01
    -20.829  0.0000E+00  0.4800E-01
    -20.733  0.0000E+00  0.4800E-01
    -20.637  0.0000E+00  0.4800E-01
    -20.542  0.0000E+00  0.4800E-01
    -20.446  0.0000E+00  0.4800E-01
    -20.351  0.0000E+00  0.4800E-01
    -20.255  0.0000E+00  0.4800E-01
    -20.160  0.0000E+00  0.4800E-01
    -20.064  0.0000E+00  0.4800E-01
    -19.969  0.0000E+00  0.4800E-01
    -19.873  0.0000E+00  0.4800E-01
    -19.777  0.0000E+00  0.4800E-01
    -19.682  0.0000E+00  0.4800E-01
    -19.586  0.0000E+00  0.4800E-01
    -19.491  0.0000E+00  0.4800E-01
    -19.395  0.0000E+00  0.4800E-01
    -19.300  0.0000E+00  0.4800E-01
    -19.204  0.0000E+00  0.4800E-01
    -19.109  0.0000E+00  0.4800E-01
    -19.013  0.0000E+00  0.4800E-01
    -18.917  0.0000E+00  0.4800E-01
    -18.822  0.0000E+00  0.4800E-01
    -18.726  0.0000E+00  0.4800E-01
    -18.631  0.0000E+00  0.4800E-01
    -18.535  0.0000E+00  0.4800E-01
    -18.440  0.0000E+00  0.4800E-01
    -18.344  0.0000E+00  0.4800E-01
    -18.249  0.0000E+00  0.4800E-01
    -18.153  0.0000E+00  0.4800E-01
    -18.058  0.0000E+00  0.4800E-01
    -17.962  0.0000E+00  0.4800E-01
    -17.866  0.0000E+00  0.4800E-01
    -17.771  0.0000E+00  0.4800E-01
    -17.675  0.0000E+00  0.4800E-01
    -17.580  0.0000E+00  0.4800E-01
    -17.484  0.0000E+00  0.4800E-01
    -17.389  0.0000E+00  0.4800E-01
    -17.293  0.0000E+00  0.4800E-01
    -17.198  0.0000E+00  0.4800E-01
    -17.102  0.0000E+00  0.4800E-01
    -17.006  0.0000E+00  0.4800E-01
    -16.911  0.0000E+00  0.4800E-01
    -16.815  0.0000E+00  0.4800E-01
    -16.720  0.0000E+00  0.4800E-01
    -16.624  0.0000E+00  0.4800E-01
    -16.529  0.0000E+00  0.4800E-01
    -16.433  0.0000E+00  0.4800E-01
    -16.338  0.0000E+00  0.4800E-01
    -16.242  0.0000E+00  0.4800E-01
    -16.146  0.0000E+00  0.4800E-01
    -16.051  0.0000E+00  0.4800E-01
    -15.955  0.0000E+00  0.4800E-01
    -15.860  0.0000E+00  0.4800E-01
    -15.764  0.0000E+00  0.4800E-01
    -15.669  0.0000E+00  0.4800E-01
    -15.573  0.0000E+00  0.4800E-01
    -15.478  0.0000E+00  0.4800E-01
    -15.382  0.0000E+00  0.4800E-01
    -15.287  0.0000E+00  0.4800E-01
    -15.191  0.0000E+00  0.4800E-01
    -15.095  0.0000E+00  0.4800E-01
    -15.000  0.0000E+00  0.4800E-01
    -14.904  0.0000E+00  0.4800E-01
    -14.809  0.0000E+00  0.4800E-01
    -14.713  0.0000E+00  0.4800E-01
    -14.618  0.0000E+00  0.4800E-01
    -14.522  0.0000E+00  0.4800E-01
    -14.427  0.0000E+00  0.4800E-01
    -14.331  0.0000E+00  0.4800E-01
    -14.235  0.0000E+00  0.4800E-01
    -14.140  0.0000E+00  0.4800E-01
    -14.044  0.0000E+00  0.4800E-01
    -13.949  0.0000E+00  0.4800E-01
    -13.853  0.0000E+00  0.4800E-01
    -13.758  0.0000E+00  0.4800E-01
    -13.662  0.0000E+00  0.4800E-01
    -13.567  0.1715E-05  0.4800E-01
    -13.471  0.4421E-04  0.4800E-01
    -13.375  0.2760E-03  0.4803E-01
    -13.280  0.1832E-02  0.4821E-01
    -13.184  0.1148E-01  0.4930E-01
    -13.089  0.5174E-01  0.5425E-01
    -12.993  0.9673E-01  0.6349E-01
    -12.898  0.6571E-01  0.6977E-01
    -12.802  0.2122E-01  0.7180E-01
    -12.707  0.1328E-01  0.7307E-01
    -12.611  0.3928E-01  0.7683E-01
    -12.516  0.8160E-01  0.8464E-01
    -12.420  0.8000E-01  0.9228E-01
    -12.324  0.3159E-01  0.9530E-01
    -12.229  0.6174E-02  0.9589E-01
    -12.133  0.8481E-03  0.9599E-01
    -12.038  0.0000E+00  0.9600E-01
    -11.942  0.0000E+00  0.9600E-01
    -11.847  0.0000E+00  0.9600E-01
    -11.751  0.0000E+00  0.9600E-01
    -11.656  0.0000E+00  0.9600E-01
    -11.560  0.0000E+00  0.9600E-01
    -11.464  0.0000E+00  0.9600E-01
    -11.369  0.7785E-06  0.9600E-01
    -11.273  0.6074E-05  0.9600E-01
    -11.178  0.4051E-04  0.9600E-01
    -11.082  0.2652E-03  0.9603E-01
    -10.987  0.1480E-02  0.9617E-01
    -10.891  0.4890E-02  0.9664E-01
    -10.796  0.8202E-02  0.9742E-01
    -10.700  0.9871E-02  0.9837E-01
    -10.605  0.1085E-01  0.9940E-01
    -10.509  0.1204E-01  0.1006E+00
    -10.413  0.1317E-01  0.1018E+00
    -10.318  0.1424E-01  0.1032E+00
    -10.222  0.1573E-01  0.1047E+00
    -10.127  0.1783E-01  0.1064E+00
    -10.031  0.2113E-01  0.1084E+00
     -9.936  0.2580E-01  0.1109E+00
     -9.840  0.2981E-01  0.1137E+00
     -9.745  0.2585E-01  0.1162E+00
     -9.649  0.1837E-01  0.1179E+00
     -9.553  0.1235E-01  0.1191E+00
     -9.458  0.6627E-02  0.1198E+00
     -9.362  0.1982E-02  0.1200E+00
     -9.267  0.4225E-03  0.1200E+00
     -9.171  0.4981E-03  0.1200E+00
     -9.076  0.2439E-02  0.1203E+00
     -8.980  0.8050E-02  0.1211E+00
     -8.885  0.1552E-01  0.1225E+00
     -8.789  0.2434E-01  0.1249E+00
     -8.693  0.3292E-01  0.1280E+00
     -8.598  0.3210E-01  0.1311E+00
     -8.502  0.2607E-01  0.1336E+00
     -8.407  0.2151E-01  0.1356E+00
     -8.311  0.1840E-01  0.1374E+00
     -8.216  0.1613E-01  0.1389E+00
     -8.120  0.1399E-01  0.1403E+00
     -8.025  0.1213E-01  0.1414E+00
     -7.929  0.1038E-01  0.1424E+00
     -7.834  0.8359E-02  0.1432E+00
     -7.738  0.5520E-02  0.1438E+00
     -7.642  0.2171E-02  0.1440E+00
     -7.547  0.1026E-02  0.1441E+00
     -7.451  0.4066E-02  0.1445E+00
     -7.356  0.2230E-01  0.1466E+00
     -7.260  0.7272E-01  0.1535E+00
     -7.165  0.9600E-01  0.1627E+00
     -7.069  0.4460E-01  0.1670E+00
     -6.974  0.1077E-01  0.1680E+00
     -6.878  0.1015E-01  0.1690E+00
     -6.782  0.3680E-01  0.1725E+00
     -6.687  0.7736E-01  0.1799E+00
     -6.591  0.8397E-01  0.1879E+00
     -6.496  0.3467E-01  0.1912E+00
     -6.400  0.6774E-02  0.1919E+00
     -6.305  0.1000E-02  0.1920E+00
     -6.209  0.0000E+00  0.1920E+00
     -6.114  0.0000E+00  0.1920E+00
     -6.018  0.0000E+00  0.1920E+00
     -5.922  0.0000E+00  0.1920E+00
     -5.827  0.0000E+00  0.1920E+00
     -5.731  0.0000E+00  0.1920E+00
     -5.636  0.0000E+00  0.1920E+00
     -5.540  0.0000E+00  0.1920E+00
     -5.445  0.0000E+00  0.1920E+00
     -5.349  0.0000E+00  0.1920E+00
     -5.254  0.0000E+00  0.1920E+00
     -5.158  0.0000E+00  0.1920E+00
     -5.063  0.0000E+00  0.1920E+00
     -4.967  0.0000E+00  0.1920E+00
     -4.871  0.0000E+00  0.1920E+00
     -4.776  0.0000E+00  0.1920E+00
     -4.680  0.0000E+00  0.1920E+00
     -4.585  0.0000E+00  0.1920E+00
     -4.489  0.0000E+00  0.1920E+00
     -4.394  0.0000E+00  0.1920E+00
     -4.298  0.0000E+00  0.1920E+00
     -4.203  0.0000E+00  0.1920E+00
     -4.107  0.0000E+00  0.1920E+00
     -4.011  0.0000E+00  0.1920E+00
     -3.916  0.0000E+00  0.1920E+00
     -3.820  0.0000E+00  0.1920E+00
     -3.725  0.0000E+00  0.1920E+00
     -3.629  0.0000E+00  0.1920E+00
     -3.534  0.0000E+00  0.1920E+00
     -3.438  0.0000E+00  0.1920E+00
     -3.343  0.0000E+00  0.1920E+00
     -3.247  0.0000E+00  0.1920E+00
     -3.152  0.0000E+00  0.1920E+00
     -3.056  0.0000E+00  0.1920E+00
     -2.960  0.0000E+00  0.1920E+00
     -2.865  0.0000E+00  0.1920E+00
     -2.769  0.7356E-07  0.1920E+00
     -2.674  0.2025E-05  0.1920E+00
     -2.578  0.1289E-04  0.1920E+00
     -2.483  0.8627E-04  0.1920E+00
     -2.387  0.5367E-03  0.1921E+00
     -2.292  0.2423E-02  0.1923E+00
     -2.196  0.5481E-02  0.1928E+00
     -2.100  0.6987E-02  0.1935E+00
     -2.005  0.7603E-02  0.1942E+00
     -1.909  0.7418E-02  0.1949E+00
     -1.814  0.7936E-02  0.1957E+00
     -1.718  0.8101E-02  0.1965E+00
     -1.623  0.7564E-02  0.1972E+00
     -1.527  0.1079E-01  0.1982E+00
     -1.432  0.1280E-01  0.1994E+00
     -1.336  0.1480E-01  0.2008E+00
     -1.240  0.1974E-01  0.2027E+00
     -1.145  0.2277E-01  0.2049E+00
     -1.049  0.2251E-01  0.2071E+00
     -0.954  0.2563E-01  0.2095E+00
     -0.858  0.2848E-01  0.2122E+00
     -0.763  0.3204E-01  0.2153E+00
     -0.667  0.3015E-01  0.2182E+00
     -0.572  0.3080E-01  0.2211E+00
     -0.476  0.3771E-01  0.2247E+00
     -0.381  0.3681E-01  0.2283E+00
     -0.285  0.3597E-01  0.2317E+00
     -0.189  0.4072E-01  0.2356E+00
     -0.094  0.4637E-01  0.2400E+00
      0.002  0.4101E-01  0.2439E+00
      0.097  0.4416E-01  0.2482E+00
      0.193  0.4727E-01  0.2527E+00
      0.288  0.4488E-01  0.2570E+00
      0.384  0.4398E-01  0.2612E+00
      0.479  0.3533E-01  0.2646E+00
      0.575  0.2286E-01  0.2668E+00
      0.671  0.9927E-02  0.2677E+00
      0.766  0.2476E-02  0.2680E+00
      0.862  0.3935E-03  0.2680E+00
      0.957  0.4019E-04  0.2680E+00
      1.053  0.0000E+00  0.2680E+00
      1.148  0.0000E+00  0.2680E+00
      1.244  0.0000E+00  0.2680E+00
      1.339  0.0000E+00  0.2680E+00
      1.435  0.0000E+00  0.2680E+00
      1.531  0.0000E+00  0.2680E+00
      1.626  0.0000E+00  0.2680E+00
      1.722  0.0000E+00  0.2680E+00
      1.817  0.0000E+00  0.2680E+00
      1.913  0.0000E+00  0.2680E+00
