Loading vasp/5.4.4-mpi-cuda
  Loading requirement: gcc/8.5.0 intel-compilers/19.0.4 cuda/10.1.1
    intel-mpi/2019.4
 running on   40 total cores
 distrk:  each k-point on   40 cores,    1 groups
 distr:  one band on   20 cores,    2 groups
 using from now: INCAR     
 vasp.5.4.4.18Apr17-6-g9f103f2a35 (build Dec 06 2019 17:20:26) complex          
  
 POSCAR found type information on POSCAR  H  O 
 POSCAR found :  2 types and      72 ions
 scaLAPACK will be used

 ----------------------------------------------------------------------------- 
|                                                                             |
|           W    W    AA    RRRRR   N    N  II  N    N   GGGG   !!!           |
|           W    W   A  A   R    R  NN   N  II  NN   N  G    G  !!!           |
|           W    W  A    A  R    R  N N  N  II  N N  N  G       !!!           |
|           W WW W  AAAAAA  RRRRR   N  N N  II  N  N N  G  GGG   !            |
|           WW  WW  A    A  R   R   N   NN  II  N   NN  G    G                |
|           W    W  A    A  R    R  N    N  II  N    N   GGGG   !!!           |
|                                                                             |
|      For optimal performance we recommend to set                            |
|        NCORE= 4 - approx SQRT( number of cores)                             |
|      NCORE specifies how many cores store one orbital (NPAR=cpu/NCORE).     |
|      This setting can  greatly improve the performance of VASP for DFT.     |
|      The default,   NCORE=1            might be grossly inefficient         |
|      on modern multi-core architectures or massively parallel machines.     |
|      Do your own testing !!!!                                               |
|      Unfortunately you need to use the default for GW and RPA calculations. |
|      (for HF NCORE is supported but not extensively tested yet)             |
|                                                                             |
 ----------------------------------------------------------------------------- 

 LDA part: xc-table for Pade appr. of Perdew
 POSCAR, INCAR and KPOINTS ok, starting setup
 FFT: planning ...
 WAVECAR not read
 WARNING: chargedensity file is incomplete
 WARNING: random wavefunctions but no delay for mixing, default for NELMDL
 entering main loop
       N       E                     dE             d eps       ncg     rms          rms(c)
RMM:   1     0.327127515666E+04    0.32713E+04   -0.28156E+04   670   0.601E+02
RMM:   2     0.207464990310E+04   -0.11966E+04   -0.13545E+04   670   0.142E+02
RMM:   3     0.166665259359E+04   -0.40800E+03   -0.86858E+03   670   0.137E+02
RMM:   4     0.915552870188E+03   -0.75110E+03   -0.72825E+03   670   0.146E+02
RMM:   5     0.356100361035E+03   -0.55945E+03   -0.53503E+03   670   0.140E+02
RMM:   6     0.267340143237E+01   -0.35343E+03   -0.31928E+03   670   0.111E+02
RMM:   7    -0.221835836430E+03   -0.22451E+03   -0.19245E+03   670   0.775E+01
RMM:   8    -0.321377495656E+03   -0.99542E+02   -0.87633E+02   670   0.473E+01
RMM:   9    -0.383164084845E+03   -0.61787E+02   -0.50133E+02  1358   0.278E+01
RMM:  10    -0.389378244632E+03   -0.62142E+01   -0.52781E+01  1414   0.892E+00
RMM:  11    -0.389514787367E+03   -0.13654E+00   -0.22748E+00  1381   0.213E+00
RMM:  12    -0.389535274947E+03   -0.20488E-01   -0.21747E-01  1450   0.533E-01    0.359E+01
RMM:  13    -0.352862987723E+03    0.36672E+02   -0.14347E+02  1340   0.267E+01    0.137E+01
RMM:  14    -0.350703584418E+03    0.21594E+01   -0.97118E+00  1342   0.557E+00    0.888E+00
RMM:  15    -0.349190551212E+03    0.15130E+01   -0.25902E+00  1340   0.426E+00    0.154E+00
RMM:  16    -0.348990490927E+03    0.20006E+00   -0.74321E-01  1341   0.151E+00    0.765E-01
RMM:  17    -0.348898126076E+03    0.92365E-01   -0.28595E-01  1410   0.817E-01    0.932E-01
RMM:  18    -0.348876848077E+03    0.21278E-01   -0.96124E-02  1340   0.719E-01    0.215E-01
RMM:  19    -0.348895252708E+03   -0.18405E-01   -0.30736E-02  1340   0.344E-01    0.134E-01
RMM:  20    -0.348911645604E+03   -0.16393E-01   -0.71625E-03  1346   0.139E-01    0.948E-02
RMM:  21    -0.348921677076E+03   -0.10031E-01   -0.47080E-03  1340   0.979E-02    0.600E-02
RMM:  22    -0.348928727885E+03   -0.70508E-02   -0.23871E-03  1390   0.877E-02    0.539E-02
RMM:  23    -0.348933252370E+03   -0.45245E-02   -0.48767E-04  1342   0.411E-02    0.275E-02
RMM:  24    -0.348935386355E+03   -0.21340E-02   -0.39309E-04  1340   0.349E-02    0.140E-02
RMM:  25    -0.348936047063E+03   -0.66071E-03   -0.48171E-05  1287   0.119E-02    0.813E-03
RMM:  26    -0.348936592421E+03   -0.54536E-03   -0.30480E-05  1281   0.906E-03    0.711E-03
RMM:  27    -0.348936663827E+03   -0.71406E-04   -0.15527E-05  1264   0.726E-03    0.720E-03
RMM:  28    -0.348936730381E+03   -0.66554E-04   -0.38609E-06  1015   0.391E-03    0.536E-03
RMM:  29    -0.348936735034E+03   -0.46531E-05   -0.24226E-06   957   0.327E-03    0.528E-03
RMM:  30    -0.348936761305E+03   -0.26271E-04   -0.40675E-07   860   0.210E-03    0.509E-03
RMM:  31    -0.348936758701E+03    0.26034E-05   -0.15580E-07   860   0.117E-03    0.503E-03
RMM:  32    -0.348936765539E+03   -0.68376E-05   -0.90132E-08   740   0.731E-04    0.503E-03
RMM:  33    -0.348936768222E+03   -0.26831E-05   -0.42303E-08   571   0.547E-04    0.503E-03
RMM:  34    -0.348936768442E+03   -0.21971E-06    0.00000E+00   380   0.403E-04
   1 F= -.35024620E+03 E0= -.35024620E+03  d E =-.350246E+03
 curvature:   0.00 expect dE= 0.000E+00 dE for cont linesearch  0.000E+00
 trial: gam= 0.00000 g(F)=  0.107E+02 g(S)=  0.000E+00 ort = 0.000E+00 (trialstep = 0.100E+01)
 search vector abs. value=  0.107E+02
 bond charge predicted
       N       E                     dE             d eps       ncg     rms          rms(c)
RMM:   1    -0.356773481734E+03   -0.78367E+01   -0.22227E+03  1340   0.124E+02    0.845E+00
RMM:   2    -0.339409040019E+03    0.17364E+02   -0.27670E+01  1428   0.113E+01    0.103E+01
RMM:   3    -0.348082102981E+03   -0.86731E+01   -0.33334E+01  1340   0.122E+01    0.215E+01
RMM:   4    -0.338858985548E+03    0.92231E+01   -0.33518E+01  1340   0.125E+01    0.103E+01
RMM:   5    -0.337080013514E+03    0.17790E+01   -0.12387E+01  1340   0.732E+00    0.538E+00
RMM:   6    -0.336652517693E+03    0.42750E+00   -0.36931E+00  1342   0.380E+00    0.244E+00
RMM:   7    -0.336704965581E+03   -0.52448E-01   -0.17467E+00  1340   0.253E+00    0.699E-01
RMM:   8    -0.336713750410E+03   -0.87848E-02   -0.11180E-01  1340   0.778E-01    0.208E-01
RMM:   9    -0.336742252181E+03   -0.28502E-01   -0.32491E-02  1419   0.289E-01    0.371E-01
RMM:  10    -0.336759622247E+03   -0.17370E-01   -0.24817E-02  1340   0.332E-01    0.299E-01
RMM:  11    -0.336772724429E+03   -0.13102E-01   -0.38862E-02  1340   0.342E-01    0.239E-01
RMM:  12    -0.336776044260E+03   -0.33198E-02   -0.54444E-03  1377   0.148E-01    0.125E-01
RMM:  13    -0.336778082321E+03   -0.20381E-02   -0.17171E-03  1340   0.842E-02    0.492E-02
RMM:  14    -0.336780283746E+03   -0.22014E-02   -0.43002E-03  1340   0.117E-01    0.103E-01
RMM:  15    -0.336780409070E+03   -0.12532E-03   -0.51907E-04  1377   0.480E-02    0.591E-02
RMM:  16    -0.336780761405E+03   -0.35234E-03   -0.11425E-03  1396   0.611E-02    0.209E-02
RMM:  17    -0.336780888187E+03   -0.12678E-03   -0.38300E-05  1281   0.137E-02    0.116E-02
RMM:  18    -0.336780939150E+03   -0.50963E-04   -0.49156E-05  1367   0.129E-02    0.781E-03
RMM:  19    -0.336780970239E+03   -0.31090E-04   -0.68762E-07   860   0.226E-03    0.749E-03
RMM:  20    -0.336780972185E+03   -0.19456E-05   -0.63312E-06  1163   0.485E-03    0.534E-03
RMM:  21    -0.336780971136E+03    0.10488E-05   -0.82130E-07   860   0.233E-03    0.501E-03
RMM:  22    -0.336780974435E+03   -0.32991E-05   -0.13948E-07   800   0.924E-04    0.500E-03
RMM:  23    -0.336780975790E+03   -0.13545E-05   -0.23210E-08   445   0.520E-04    0.500E-03
RMM:  24    -0.336780976236E+03   -0.44630E-06   -0.11129E-07   750   0.803E-04
   2 F= -.33811007E+03 E0= -.33811007E+03  d E =0.121361E+02
 trial-energy change:   12.136134  1 .order   14.337236  -10.720462   39.394934
 step:   0.2653(harm=  0.2139)  dis= 0.02669  next Energy=  -351.709244 (dE=-0.146E+01)
 bond charge predicted
       N       E                     dE             d eps       ncg     rms          rms(c)
RMM:   1    -0.357172383372E+03   -0.20391E+02   -0.11611E+03  1340   0.898E+01    0.851E+00
RMM:   2    -0.351065456260E+03    0.61069E+01   -0.25194E+01  1340   0.113E+01    0.531E+00
RMM:   3    -0.350307638669E+03    0.75782E+00   -0.21272E+00  1340   0.310E+00    0.193E+00
RMM:   4    -0.350266885192E+03    0.40753E-01   -0.53183E-01  1392   0.140E+00    0.622E-01
RMM:   5    -0.350270816000E+03   -0.39308E-02   -0.10332E-01  1481   0.541E-01    0.388E-01
RMM:   6    -0.350277528832E+03   -0.67128E-02   -0.55567E-02  1340   0.465E-01    0.455E-01
RMM:   7    -0.350272402308E+03    0.51265E-02   -0.27755E-02  1340   0.324E-01    0.201E-01
RMM:   8    -0.350271706123E+03    0.69619E-03   -0.35212E-03  1400   0.119E-01    0.100E-01
RMM:   9    -0.350271823929E+03   -0.11781E-03   -0.19338E-03  1340   0.851E-02    0.381E-02
RMM:  10    -0.350271849548E+03   -0.25619E-04   -0.17042E-04  1363   0.282E-02    0.245E-02
RMM:  11    -0.350271848918E+03    0.63007E-06   -0.28874E-05  1381   0.937E-03    0.229E-02
RMM:  12    -0.350271864266E+03   -0.15348E-04   -0.28757E-05  1340   0.103E-02    0.115E-02
RMM:  13    -0.350271897839E+03   -0.33573E-04   -0.52483E-06  1157   0.426E-03    0.925E-03
RMM:  14    -0.350271897531E+03    0.30748E-06   -0.21815E-05  1311   0.854E-03    0.569E-03
RMM:  15    -0.350271896276E+03    0.12558E-05   -0.44641E-07   860   0.164E-03    0.557E-03
RMM:  16    -0.350271893630E+03    0.26453E-05   -0.10295E-06   860   0.219E-03    0.508E-03
RMM:  17    -0.350271896495E+03   -0.28649E-05   -0.57312E-07   853   0.164E-03    0.516E-03
RMM:  18    -0.350271898468E+03   -0.19730E-05   -0.26908E-08   547   0.541E-04    0.511E-03
RMM:  19    -0.350271901258E+03   -0.27900E-05   -0.37627E-07   860   0.136E-03    0.507E-03
RMM:  20    -0.350271901398E+03   -0.13986E-06    0.00000E+00   380   0.432E-04
   3 F= -.35158239E+03 E0= -.35158239E+03  d E =-.133619E+01
 curvature:  -0.11 expect dE=-0.145E+00 dE for cont linesearch -0.372E-02
 ZBRENT: interpolating
 opt :   0.2510  next Energy=  -351.586765 (dE=-0.134E+01)
 bond charge predicted
       N       E                     dE             d eps       ncg     rms          rms(c)
RMM:   1    -0.350276976951E+03   -0.50757E-02   -0.42488E-01  1340   0.173E+00    0.133E-01
RMM:   2    -0.350275897560E+03    0.10794E-02   -0.69738E-03  1340   0.178E-01    0.114E-01
RMM:   3    -0.350276223241E+03   -0.32568E-03   -0.27618E-03  1340   0.110E-01    0.374E-02
RMM:   4    -0.350276180562E+03    0.42680E-04   -0.17526E-04  1454   0.255E-02    0.305E-02
RMM:   5    -0.350276212992E+03   -0.32431E-04   -0.19446E-04  1340   0.282E-02    0.189E-02
RMM:   6    -0.350276304068E+03   -0.91075E-04   -0.49674E-05  1338   0.138E-02    0.704E-03
RMM:   7    -0.350276332329E+03   -0.28262E-04   -0.10540E-05  1261   0.659E-03    0.107E-02
RMM:   8    -0.350276330695E+03    0.16345E-05   -0.26126E-05  1340   0.106E-02    0.604E-03
RMM:   9    -0.350276342114E+03   -0.11419E-04   -0.84116E-07   860   0.242E-03    0.537E-03
RMM:  10    -0.350276346909E+03   -0.47950E-05   -0.63408E-07   860   0.186E-03    0.507E-03
RMM:  11    -0.350276349989E+03   -0.30795E-05   -0.15091E-07   860   0.953E-04    0.506E-03
RMM:  12    -0.350276352228E+03   -0.22392E-05   -0.17517E-09   386   0.454E-04    0.505E-03
RMM:  13    -0.350276352465E+03   -0.23726E-06   -0.62274E-09   406   0.504E-04
   4 F= -.35158675E+03 E0= -.35158675E+03  d E =-.134055E+01
 curvature:  -0.13 expect dE=-0.144E+00 dE for cont linesearch -0.103E-07
 trial: gam= 0.10682 g(F)=  0.115E+01 g(S)=  0.000E+00 ort = 0.937E-03 (trialstep = 0.850E+00)
 search vector abs. value=  0.127E+01
 bond charge predicted
       N       E                     dE             d eps       ncg     rms          rms(c)
RMM:   1    -0.351051384084E+03   -0.77503E+00   -0.13981E+02  1340   0.315E+01    0.229E+00
RMM:   2    -0.350837719015E+03    0.21367E+00   -0.40350E+00  1340   0.447E+00    0.285E+00
RMM:   3    -0.350706380014E+03    0.13134E+00   -0.86246E-01  1340   0.205E+00    0.115E+00
RMM:   4    -0.350654152510E+03    0.52228E-01   -0.38086E-01  1340   0.111E+00    0.396E-01
RMM:   5    -0.350683439049E+03   -0.29287E-01   -0.28695E-02  1348   0.358E-01    0.208E-01
RMM:   6    -0.350697468220E+03   -0.14029E-01   -0.24420E-02  1340   0.293E-01    0.310E-01
RMM:   7    -0.350703044953E+03   -0.55767E-02   -0.72928E-03  1340   0.188E-01    0.898E-02
RMM:   8    -0.350703730606E+03   -0.68565E-03   -0.48791E-04  1368   0.448E-02    0.681E-02
RMM:   9    -0.350703853331E+03   -0.12272E-03   -0.11552E-03  1340   0.673E-02    0.136E-02
RMM:  10    -0.350704447855E+03   -0.59452E-03   -0.21026E-04  1342   0.282E-02    0.381E-02
RMM:  11    -0.350704541625E+03   -0.93770E-04   -0.17073E-04  1340   0.267E-02    0.135E-02
RMM:  12    -0.350704594105E+03   -0.52481E-04   -0.51220E-05  1342   0.152E-02    0.955E-03
RMM:  13    -0.350704598996E+03   -0.48910E-05   -0.20090E-05  1453   0.829E-03    0.123E-02
RMM:  14    -0.350704594198E+03    0.47981E-05   -0.49938E-06  1093   0.447E-03    0.815E-03
RMM:  15    -0.350704577153E+03    0.17045E-04   -0.21596E-05  1319   0.880E-03    0.907E-03
RMM:  16    -0.350704578458E+03   -0.13051E-05   -0.10692E-06   860   0.256E-03    0.741E-03
RMM:  17    -0.350704579664E+03   -0.12060E-05   -0.18028E-06   905   0.274E-03    0.610E-03
RMM:  18    -0.350704580271E+03   -0.60658E-06   -0.19457E-07   801   0.108E-03
   5 F= -.35201266E+03 E0= -.35201266E+03  d E =-.425904E+00
 trial-energy change:   -0.425904  1 .order   -0.435330   -0.974495    0.103835
 step:   0.7643(harm=  0.7683)  dis= 0.03214  next Energy=  -352.017913 (dE=-0.431E+00)
 bond charge predicted
       N       E                     dE             d eps       ncg     rms          rms(c)
RMM:   1    -0.350712027601E+03   -0.74479E-02   -0.14243E+00  1340   0.321E+00    0.204E-01
RMM:   2    -0.350709576323E+03    0.24513E-02   -0.11098E-02  1340   0.238E-01    0.586E-02
RMM:   3    -0.350709560408E+03    0.15915E-04   -0.17604E-03  1399   0.712E-02    0.287E-02
RMM:   4    -0.350709563285E+03   -0.28770E-05   -0.79245E-05  1362   0.169E-02    0.167E-02
RMM:   5    -0.350709492060E+03    0.71226E-04   -0.78091E-05  1354   0.171E-02    0.789E-03
RMM:   6    -0.350709574225E+03   -0.82165E-04   -0.34788E-06  1045   0.414E-03    0.556E-03
RMM:   7    -0.350709571753E+03    0.24718E-05   -0.40084E-06  1143   0.380E-03    0.532E-03
RMM:   8    -0.350709565469E+03    0.62845E-05   -0.31636E-07   860   0.132E-03    0.530E-03
RMM:   9    -0.350709566419E+03   -0.95029E-06   -0.22480E-07   860   0.124E-03
   6 F= -.35201786E+03 E0= -.35201786E+03  d E =-.431105E+00
 curvature:  -0.42 expect dE=-0.485E+00 dE for cont linesearch -0.353E-07
 trial: gam= 1.09318 g(F)=  0.114E+01 g(S)=  0.000E+00 ort = 0.325E-03 (trialstep = 0.397E+00)
 search vector abs. value=  0.266E+01
 bond charge predicted
       N       E                     dE             d eps       ncg     rms          rms(c)
RMM:   1    -0.351220874975E+03   -0.51131E+00   -0.66437E+01  1340   0.221E+01    0.109E+00
RMM:   2    -0.351099005930E+03    0.12187E+00   -0.62220E-01  1340   0.177E+00    0.169E+00
RMM:   3    -0.351014754106E+03    0.84252E-01   -0.42614E-01  1340   0.118E+00    0.897E-01
RMM:   4    -0.351053786430E+03   -0.39032E-01   -0.38673E-01  1340   0.115E+00    0.877E-01
RMM:   5    -0.351045712861E+03    0.80736E-02   -0.10821E-01  1340   0.647E-01    0.203E-01
RMM:   6    -0.351047599636E+03   -0.18868E-02   -0.12792E-02  1453   0.212E-01    0.659E-02
RMM:   7    -0.351049773335E+03   -0.21737E-02   -0.62714E-04  1340   0.519E-02    0.277E-02
RMM:   8    -0.351051647667E+03   -0.18743E-02   -0.46369E-04  1342   0.398E-02    0.284E-02
RMM:   9    -0.351052186222E+03   -0.53855E-03   -0.16343E-04  1369   0.259E-02    0.804E-03
RMM:  10    -0.351052712933E+03   -0.52671E-03   -0.15660E-05  1203   0.665E-03    0.576E-03
RMM:  11    -0.351052972788E+03   -0.25985E-03   -0.33849E-06  1007   0.328E-03    0.591E-03
RMM:  12    -0.351053071186E+03   -0.98399E-04   -0.15609E-05  1280   0.693E-03    0.722E-03
RMM:  13    -0.351053087359E+03   -0.16173E-04   -0.79856E-06  1219   0.554E-03    0.536E-03
RMM:  14    -0.351053098925E+03   -0.11566E-04   -0.12455E-06   860   0.284E-03    0.507E-03
RMM:  15    -0.351053101221E+03   -0.22954E-05   -0.10586E-06   860   0.231E-03    0.492E-03
RMM:  16    -0.351053097562E+03    0.36589E-05   -0.27728E-07   860   0.141E-03    0.482E-03
RMM:  17    -0.351053097637E+03   -0.75039E-07   -0.17437E-07   756   0.965E-04
   7 F= -.35236287E+03 E0= -.35236287E+03  d E =-.345008E+00
 trial-energy change:   -0.345008  1 .order   -0.344878   -0.454118   -0.235638
 step:   0.8261(harm=  0.8261)  dis= 0.04083  next Energy=  -352.489807 (dE=-0.472E+00)
 bond charge predicted
       N       E                     dE             d eps       ncg     rms          rms(c)
RMM:   1    -0.351377312449E+03   -0.32421E+00   -0.77449E+01  1340   0.239E+01    0.120E+00
RMM:   2    -0.351168528569E+03    0.20878E+00   -0.50239E-01  1340   0.168E+00    0.312E-01
RMM:   3    -0.351173612871E+03   -0.50843E-02   -0.63727E-02  1340   0.411E-01    0.999E-02
RMM:   4    -0.351175187999E+03   -0.15751E-02   -0.41429E-03  1382   0.130E-01    0.697E-02
RMM:   5    -0.351175925825E+03   -0.73783E-03   -0.15491E-03  1344   0.700E-02    0.821E-02
RMM:   6    -0.351176469603E+03   -0.54378E-03   -0.63738E-04  1385   0.477E-02    0.269E-02
RMM:   7    -0.351177430845E+03   -0.96124E-03   -0.63132E-04  1400   0.450E-02    0.280E-02
RMM:   8    -0.351177561559E+03   -0.13071E-03   -0.97288E-05  1340   0.203E-02    0.593E-03
RMM:   9    -0.351177595979E+03   -0.34421E-04   -0.81699E-06  1221   0.622E-03    0.579E-03
RMM:  10    -0.351177593189E+03    0.27899E-05   -0.21191E-06   935   0.277E-03    0.475E-03
RMM:  11    -0.351177590346E+03    0.28433E-05   -0.61378E-07   860   0.216E-03    0.457E-03
RMM:  12    -0.351177590317E+03    0.28793E-07   -0.60652E-07   860   0.171E-03
   8 F= -.35248892E+03 E0= -.35248892E+03  d E =-.471064E+00
 curvature:  -0.96 expect dE=-0.589E+00 dE for cont linesearch -0.308E-04
 trial: gam= 0.46765 g(F)=  0.612E+00 g(S)=  0.000E+00 ort =-0.923E-02 (trialstep = 0.483E+00)
 search vector abs. value=  0.119E+01
 bond charge predicted
       N       E                     dE             d eps       ncg     rms          rms(c)
RMM:   1    -0.351397052702E+03   -0.21946E+00   -0.36857E+01  1340   0.169E+01    0.878E-01
RMM:   2    -0.351386632147E+03    0.10421E-01   -0.75372E-01  1340   0.192E+00    0.191E+00
RMM:   3    -0.351360125322E+03    0.26507E-01   -0.10837E+00  1340   0.208E+00    0.134E+00
RMM:   4    -0.351327249503E+03    0.32876E-01   -0.50522E-02  1340   0.502E-01    0.883E-01
RMM:   5    -0.351322629647E+03    0.46199E-02   -0.33342E-01  1340   0.107E+00    0.482E-01
RMM:   6    -0.351320118480E+03    0.25112E-02   -0.64401E-03  1340   0.189E-01    0.338E-01
RMM:   7    -0.351323853976E+03   -0.37355E-02   -0.29513E-02  1340   0.325E-01    0.796E-02
RMM:   8    -0.351327498600E+03   -0.36446E-02   -0.47259E-04  1343   0.484E-02    0.728E-02
RMM:   9    -0.351327721226E+03   -0.22263E-03   -0.10031E-04  1344   0.187E-02    0.576E-02
RMM:  10    -0.351328268181E+03   -0.54695E-03   -0.14266E-03  1340   0.696E-02    0.316E-02
RMM:  11    -0.351328379090E+03   -0.11091E-03   -0.27441E-05  1340   0.129E-02    0.216E-02
RMM:  12    -0.351328576690E+03   -0.19760E-03   -0.20944E-04  1340   0.263E-02    0.116E-02
RMM:  13    -0.351328628242E+03   -0.51552E-04   -0.86904E-06  1204   0.604E-03    0.130E-02
RMM:  14    -0.351328646403E+03   -0.18161E-04   -0.13754E-05  1278   0.684E-03    0.623E-03
RMM:  15    -0.351328660831E+03   -0.14427E-04   -0.47192E-06  1090   0.407E-03    0.419E-03
RMM:  16    -0.351328674738E+03   -0.13908E-04   -0.36524E-07   860   0.195E-03    0.418E-03
RMM:  17    -0.351328674477E+03    0.26132E-06   -0.18439E-07   860   0.119E-03
   9 F= -.35264023E+03 E0= -.35264023E+03  d E =-.151305E+00
 trial-energy change:   -0.151305  1 .order   -0.151663   -0.293826   -0.009500
 step:   0.4993(harm=  0.4993)  dis= 0.01537  next Energy=  -352.640744 (dE=-0.152E+00)
 bond charge predicted
       N       E                     dE             d eps       ncg     rms          rms(c)
RMM:   1    -0.351328904039E+03   -0.22930E-03   -0.41042E-02  1340   0.563E-01    0.297E-02
RMM:   2    -0.351328818325E+03    0.85714E-04   -0.23970E-04  1340   0.400E-02    0.857E-03
RMM:   3    -0.351328821825E+03   -0.35001E-05   -0.13746E-05  1246   0.617E-03    0.622E-03
RMM:   4    -0.351328837790E+03   -0.15964E-04   -0.72598E-06  1168   0.513E-03    0.434E-03
RMM:   5    -0.351328836121E+03    0.16685E-05   -0.55476E-07   860   0.186E-03    0.415E-03
RMM:   6    -0.351328838840E+03   -0.27190E-05   -0.89285E-08   705   0.783E-04    0.417E-03
RMM:   7    -0.351328839700E+03   -0.85971E-06   -0.13297E-07   827   0.810E-04
  10 F= -.35264040E+03 E0= -.35264040E+03  d E =-.151482E+00
 curvature:  -0.49 expect dE=-0.164E+00 dE for cont linesearch -0.633E-07
 trial: gam= 0.54129 g(F)=  0.337E+00 g(S)=  0.000E+00 ort = 0.393E-03 (trialstep = 0.486E+00)
 search vector abs. value=  0.685E+00
 bond charge predicted
       N       E                     dE             d eps       ncg     rms          rms(c)
RMM:   1    -0.351466679918E+03   -0.13784E+00   -0.14127E+01  1340   0.104E+01    0.683E-01
RMM:   2    -0.351414972514E+03    0.51707E-01   -0.10213E-01  1340   0.802E-01    0.576E-01
RMM:   3    -0.351412074127E+03    0.28984E-02   -0.84628E-02  1340   0.568E-01    0.299E-01
RMM:   4    -0.351437550723E+03   -0.25477E-01   -0.45586E-02  1345   0.390E-01    0.533E-01
RMM:   5    -0.351434852130E+03    0.26986E-02   -0.88644E-02  1340   0.561E-01    0.186E-01
RMM:   6    -0.351437305295E+03   -0.24532E-02   -0.29712E-03  1406   0.951E-02    0.221E-01
RMM:   7    -0.351438585851E+03   -0.12806E-02   -0.76937E-03  1340   0.167E-01    0.249E-02
RMM:   8    -0.351440253045E+03   -0.16672E-02   -0.53508E-04  1410   0.429E-02    0.237E-02
RMM:   9    -0.351440975836E+03   -0.72279E-03   -0.10142E-04  1342   0.172E-02    0.125E-02
RMM:  10    -0.351441087511E+03   -0.11168E-03   -0.21747E-05  1385   0.832E-03    0.558E-03
RMM:  11    -0.351441201609E+03   -0.11410E-03   -0.39329E-06  1070   0.404E-03    0.425E-03
RMM:  12    -0.351441237095E+03   -0.35486E-04   -0.99444E-07   860   0.226E-03    0.417E-03
RMM:  13    -0.351441242407E+03   -0.53116E-05   -0.43546E-07   860   0.145E-03    0.402E-03
RMM:  14    -0.351441243018E+03   -0.61161E-06   -0.18911E-07   765   0.973E-04
  11 F= -.35275318E+03 E0= -.35275318E+03  d E =-.112779E+00
 trial-energy change:   -0.112779  1 .order   -0.112293   -0.163960   -0.060625
 step:   0.7597(harm=  0.7717)  dis= 0.01751  next Energy=  -352.770302 (dE=-0.130E+00)
 bond charge predicted
       N       E                     dE             d eps       ncg     rms          rms(c)
RMM:   1    -0.351465997254E+03   -0.24755E-01   -0.44645E+00  1340   0.586E+00    0.391E-01
RMM:   2    -0.351457755500E+03    0.82418E-02   -0.29357E-02  1340   0.434E-01    0.574E-02
RMM:   3    -0.351458264549E+03   -0.50905E-03   -0.38916E-03  1343   0.114E-01    0.474E-02
RMM:   4    -0.351458268897E+03   -0.43486E-05   -0.15842E-04  1340   0.283E-02    0.256E-02
RMM:   5    -0.351458253645E+03    0.15252E-04   -0.31025E-04  1340   0.326E-02    0.169E-02
RMM:   6    -0.351458262467E+03   -0.88218E-05   -0.15850E-05  1310   0.895E-03    0.794E-03
RMM:   7    -0.351458257842E+03    0.46250E-05   -0.75691E-06  1162   0.520E-03    0.421E-03
RMM:   8    -0.351458251673E+03    0.61682E-05   -0.80131E-07   860   0.231E-03    0.385E-03
RMM:   9    -0.351458252871E+03   -0.11979E-05   -0.36479E-07   860   0.149E-03    0.377E-03
RMM:  10    -0.351458254629E+03   -0.17574E-05   -0.14083E-07   800   0.905E-04    0.376E-03
RMM:  11    -0.351458256055E+03   -0.14261E-05   -0.39351E-08   571   0.555E-04    0.377E-03
RMM:  12    -0.351458256754E+03   -0.69911E-06    0.00000E+00   380   0.431E-04
  12 F= -.35277047E+03 E0= -.35277047E+03  d E =-.130066E+00
 curvature:  -0.78 expect dE=-0.166E+00 dE for cont linesearch -0.816E-06
 trial: gam= 0.62623 g(F)=  0.212E+00 g(S)=  0.000E+00 ort = 0.845E-03 (trialstep = 0.541E+00)
 search vector abs. value=  0.482E+00
 bond charge predicted
       N       E                     dE             d eps       ncg     rms          rms(c)
RMM:   1    -0.351526015623E+03   -0.67760E-01   -0.64803E+00  1340   0.730E+00    0.532E-01
RMM:   2    -0.351509874940E+03    0.16141E-01   -0.10744E-01  1340   0.766E-01    0.732E-01
RMM:   3    -0.351498178210E+03    0.11697E-01   -0.36923E-02  1340   0.422E-01    0.462E-01
RMM:   4    -0.351505560790E+03   -0.73826E-02   -0.66828E-02  1340   0.498E-01    0.197E-01
RMM:   5    -0.351515776708E+03   -0.10216E-01   -0.13011E-02  1340   0.221E-01    0.745E-02
RMM:   6    -0.351519068957E+03   -0.32922E-02   -0.12662E-03  1366   0.742E-02    0.108E-01
RMM:   7    -0.351519907735E+03   -0.83878E-03   -0.15869E-03  1340   0.754E-02    0.243E-02
RMM:   8    -0.351520627020E+03   -0.71928E-03   -0.27425E-04  1400   0.286E-02    0.160E-02
RMM:   9    -0.351520707260E+03   -0.80240E-04   -0.93378E-05  1347   0.187E-02    0.771E-03
RMM:  10    -0.351520850743E+03   -0.14348E-03   -0.20394E-05  1337   0.928E-03    0.888E-03
RMM:  11    -0.351520889315E+03   -0.38571E-04   -0.12088E-05  1280   0.689E-03    0.512E-03
RMM:  12    -0.351520894353E+03   -0.50384E-05   -0.51216E-06  1115   0.454E-03    0.479E-03
RMM:  13    -0.351520891169E+03    0.31838E-05   -0.10408E-06   860   0.242E-03    0.406E-03
RMM:  14    -0.351520892996E+03   -0.18272E-05   -0.11872E-06   860   0.244E-03    0.373E-03
RMM:  15    -0.351520894011E+03   -0.10142E-05   -0.19679E-07   765   0.105E-03    0.374E-03
RMM:  16    -0.351520893786E+03    0.22450E-06   -0.95639E-08   746   0.783E-04
  13 F= -.35283217E+03 E0= -.35283217E+03  d E =-.617030E-01
 trial-energy change:   -0.061703  1 .order   -0.061676   -0.115197   -0.008154
 step:   0.5823(harm=  0.5823)  dis= 0.01198  next Energy=  -352.832456 (dE=-0.620E-01)
 bond charge predicted
       N       E                     dE             d eps       ncg     rms          rms(c)
RMM:   1    -0.351521305967E+03   -0.41196E-03   -0.37566E-02  1340   0.556E-01    0.402E-02
RMM:   2    -0.351521276695E+03    0.29273E-04   -0.26332E-04  1340   0.435E-02    0.557E-03
RMM:   3    -0.351521287437E+03   -0.10743E-04   -0.21588E-05  1344   0.954E-03    0.481E-03
RMM:   4    -0.351521288665E+03   -0.12278E-05   -0.10125E-06   860   0.257E-03    0.390E-03
RMM:   5    -0.351521289966E+03   -0.13012E-05   -0.57092E-07   860   0.183E-03    0.370E-03
RMM:   6    -0.351521288940E+03    0.10267E-05   -0.89898E-08   725   0.752E-04    0.371E-03
RMM:   7    -0.351521288368E+03    0.57175E-06   -0.16490E-08   460   0.491E-04
  14 F= -.35283250E+03 E0= -.35283250E+03  d E =-.620315E-01
 curvature:  -0.66 expect dE=-0.692E-01 dE for cont linesearch -0.287E-07
 trial: gam= 0.50095 g(F)=  0.105E+00 g(S)=  0.000E+00 ort = 0.145E-03 (trialstep = 0.549E+00)
 search vector abs. value=  0.226E+00
 bond charge predicted
       N       E                     dE             d eps       ncg     rms          rms(c)
RMM:   1    -0.351549389179E+03   -0.28100E-01   -0.39830E+00  1340   0.578E+00    0.335E-01
RMM:   2    -0.351585719299E+03   -0.36330E-01   -0.37925E-01  1340   0.118E+00    0.146E+00
RMM:   3    -0.351533415024E+03    0.52304E-01   -0.49319E-01  1340   0.129E+00    0.202E-01
RMM:   4    -0.351535560293E+03   -0.21453E-02   -0.10913E-02  1344   0.219E-01    0.211E-01
RMM:   5    -0.351537545699E+03   -0.19854E-02   -0.16726E-02  1340   0.248E-01    0.108E-01
RMM:   6    -0.351539899043E+03   -0.23533E-02   -0.81578E-04  1340   0.632E-02    0.367E-02
RMM:   7    -0.351541860045E+03   -0.19610E-02   -0.11398E-03  1340   0.602E-02    0.351E-02
RMM:   8    -0.351542613550E+03   -0.75351E-03   -0.22845E-04  1349   0.302E-02    0.165E-02
RMM:   9    -0.351543016827E+03   -0.40328E-03   -0.20519E-04  1400   0.262E-02    0.217E-02
RMM:  10    -0.351543087797E+03   -0.70970E-04   -0.41148E-05  1340   0.131E-02    0.774E-03
RMM:  11    -0.351543091038E+03   -0.32405E-05   -0.15404E-05  1268   0.731E-03    0.417E-03
RMM:  12    -0.351543094813E+03   -0.37751E-05   -0.13352E-06   860   0.300E-03    0.403E-03
RMM:  13    -0.351543097687E+03   -0.28746E-05   -0.36120E-07   860   0.158E-03    0.413E-03
RMM:  14    -0.351543097112E+03    0.57540E-06   -0.62138E-07   860   0.167E-03
  15 F= -.35285475E+03 E0= -.35285475E+03  d E =-.222502E-01
 trial-energy change:   -0.022250  1 .order   -0.022539   -0.057732    0.012655
 step:   0.4485(harm=  0.4505)  dis= 0.00787  next Energy=  -352.855914 (dE=-0.234E-01)
 bond charge predicted
       N       E                     dE             d eps       ncg     rms          rms(c)
RMM:   1    -0.351544564754E+03   -0.14671E-02   -0.13387E-01  1340   0.106E+00    0.612E-02
RMM:   2    -0.351544343992E+03    0.22076E-03   -0.70246E-04  1340   0.670E-02    0.168E-02
RMM:   3    -0.351544348679E+03   -0.46874E-05   -0.14262E-04  1340   0.203E-02    0.647E-03
RMM:   4    -0.351544350073E+03   -0.13937E-05   -0.61844E-06  1031   0.465E-03    0.513E-03
RMM:   5    -0.351544353896E+03   -0.38235E-05   -0.97751E-07   860   0.217E-03    0.416E-03
RMM:   6    -0.351544356152E+03   -0.22554E-05   -0.16407E-06   860   0.273E-03    0.379E-03
RMM:   7    -0.351544354872E+03    0.12799E-05   -0.19066E-07   860   0.102E-03    0.376E-03
RMM:   8    -0.351544355158E+03   -0.28604E-06   -0.28068E-08   557   0.573E-04
  16 F= -.35285592E+03 E0= -.35285592E+03  d E =-.234193E-01
 curvature:  -0.48 expect dE=-0.106E-01 dE for cont linesearch -0.164E-07
 trial: gam= 0.19760 g(F)=  0.218E-01 g(S)=  0.000E+00 ort = 0.875E-04 (trialstep = 0.529E+00)
 search vector abs. value=  0.307E-01
 bond charge predicted
       N       E                     dE             d eps       ncg     rms          rms(c)
RMM:   1    -0.351554838092E+03   -0.10483E-01   -0.86680E-01  1340   0.259E+00    0.151E-01
RMM:   2    -0.351549476474E+03    0.53616E-02   -0.12493E-02  1340   0.261E-01    0.218E-01
RMM:   3    -0.351550229759E+03   -0.75328E-03   -0.27325E-02  1340   0.309E-01    0.200E-01
RMM:   4    -0.351551710291E+03   -0.14805E-02   -0.27652E-03  1340   0.115E-01    0.806E-02
RMM:   5    -0.351552091153E+03   -0.38086E-03   -0.16085E-03  1390   0.753E-02    0.196E-02
RMM:   6    -0.351552627051E+03   -0.53590E-03   -0.18975E-04  1340   0.297E-02    0.276E-02
RMM:   7    -0.351552775078E+03   -0.14803E-03   -0.16093E-04  1340   0.238E-02    0.732E-03
RMM:   8    -0.351552913920E+03   -0.13884E-03   -0.11057E-05  1277   0.736E-03    0.447E-03
RMM:   9    -0.351552950804E+03   -0.36884E-04   -0.19090E-06   887   0.289E-03    0.387E-03
RMM:  10    -0.351552953490E+03   -0.26858E-05   -0.50463E-07   860   0.150E-03    0.380E-03
RMM:  11    -0.351552957887E+03   -0.43972E-05   -0.17153E-07   680   0.811E-04    0.376E-03
RMM:  12    -0.351552960425E+03   -0.25382E-05   -0.11495E-07   769   0.738E-04    0.377E-03
RMM:  13    -0.351552958405E+03    0.20202E-05   -0.22076E-08   477   0.522E-04    0.375E-03
RMM:  14    -0.351552957611E+03    0.79413E-06   -0.46233E-08   587   0.606E-04
  17 F= -.35286453E+03 E0= -.35286453E+03  d E =-.860628E-02
 trial-energy change:   -0.008606  1 .order   -0.008544   -0.011555   -0.005532
 step:   0.9654(harm=  1.0151)  dis= 0.00611  next Energy=  -352.866843 (dE=-0.109E-01)
 bond charge predicted
       N       E                     dE             d eps       ncg     rms          rms(c)
RMM:   1    -0.351556812510E+03   -0.38541E-02   -0.58838E-01  1340   0.213E+00    0.125E-01
RMM:   2    -0.351555432129E+03    0.13804E-02   -0.31381E-03  1340   0.138E-01    0.190E-02
RMM:   3    -0.351555493617E+03   -0.61488E-04   -0.37175E-04  1340   0.293E-02    0.666E-03
RMM:   4    -0.351555510798E+03   -0.17181E-04   -0.14413E-05  1263   0.778E-03    0.460E-03
RMM:   5    -0.351555515631E+03   -0.48329E-05   -0.30264E-06   920   0.241E-03    0.417E-03
RMM:   6    -0.351555513674E+03    0.19570E-05   -0.34797E-07   860   0.126E-03    0.394E-03
RMM:   7    -0.351555512874E+03    0.79967E-06   -0.15192E-07   761   0.848E-04
  18 F= -.35286709E+03 E0= -.35286709E+03  d E =-.111678E-01
 curvature:  -0.71 expect dE=-0.286E-01 dE for cont linesearch -0.296E-04
 trial: gam= 1.80952 g(F)=  0.405E-01 g(S)=  0.000E+00 ort = 0.113E-02 (trialstep = 0.130E+00)
 search vector abs. value=  0.145E+00
 bond charge predicted
       N       E                     dE             d eps       ncg     rms          rms(c)
RMM:   1    -0.351561376833E+03   -0.58632E-02   -0.40364E-01  1340   0.177E+00    0.982E-02
RMM:   2    -0.351559652252E+03    0.17246E-02   -0.10534E-02  1349   0.196E-01    0.131E-01
RMM:   3    -0.351559100821E+03    0.55143E-03   -0.29199E-03  1340   0.106E-01    0.241E-02
RMM:   4    -0.351560362634E+03   -0.12618E-02   -0.11855E-03  1400   0.641E-02    0.662E-02
RMM:   5    -0.351560437375E+03   -0.74741E-04   -0.99300E-04  1340   0.597E-02    0.205E-02
RMM:   6    -0.351560484645E+03   -0.47270E-04   -0.42995E-05  1353   0.143E-02    0.156E-02
RMM:   7    -0.351560517145E+03   -0.32500E-04   -0.44175E-05  1340   0.127E-02    0.442E-03
RMM:   8    -0.351560550428E+03   -0.33283E-04   -0.97674E-07   860   0.282E-03    0.438E-03
RMM:   9    -0.351560571762E+03   -0.21334E-04   -0.74643E-07   860   0.206E-03    0.383E-03
RMM:  10    -0.351560579997E+03   -0.82357E-05   -0.12685E-06   860   0.238E-03    0.398E-03
RMM:  11    -0.351560585646E+03   -0.56486E-05   -0.16361E-07   860   0.102E-03    0.376E-03
RMM:  12    -0.351560587250E+03   -0.16042E-05   -0.19637E-07   860   0.115E-03    0.372E-03
RMM:  13    -0.351560587273E+03   -0.22465E-07    0.00000E+00   380   0.388E-04
  19 F= -.35287221E+03 E0= -.35287221E+03  d E =-.512471E-02
 trial-energy change:   -0.005125  1 .order   -0.005079   -0.005544   -0.004615
 step:   0.4515(harm=  0.7782)  dis= 0.00696  next Energy=  -352.878574 (dE=-0.115E-01)
 bond charge predicted
       N       E                     dE             d eps       ncg     rms          rms(c)
RMM:   1    -0.351573999308E+03   -0.13412E-01   -0.24455E+00  1340   0.435E+00    0.245E-01
RMM:   2    -0.351568753999E+03    0.52453E-02   -0.15541E-02  1340   0.287E-01    0.471E-02
RMM:   3    -0.351569061273E+03   -0.30727E-03   -0.20371E-03  1369   0.690E-02    0.195E-02
RMM:   4    -0.351569049871E+03    0.11402E-04   -0.80059E-05  1345   0.185E-02    0.732E-03
RMM:   5    -0.351569049182E+03    0.68991E-06   -0.18626E-05  1215   0.644E-03    0.455E-03
RMM:   6    -0.351569054237E+03   -0.50559E-05   -0.33786E-06  1039   0.369E-03    0.390E-03
RMM:   7    -0.351569054350E+03   -0.11262E-06   -0.34706E-07   860   0.147E-03
  20 F= -.35288080E+03 E0= -.35288080E+03  d E =-.137157E-01
 curvature:  -0.99 expect dE=-0.100E-01 dE for cont linesearch -0.211E-02
 ZBRENT: increasing intervall
 opt :   1.0936  next Energy=  -352.880654 (dE=-0.136E-01)
 bond charge predicted
       N       E                     dE             d eps       ncg     rms          rms(c)
RMM:   1    -0.351588419328E+03   -0.19365E-01   -0.97696E+00  1340   0.870E+00    0.498E-01
RMM:   2    -0.351567280567E+03    0.21139E-01   -0.63405E-02  1340   0.579E-01    0.989E-02
RMM:   3    -0.351568606454E+03   -0.13259E-02   -0.63567E-03  1425   0.115E-01    0.277E-02
RMM:   4    -0.351568651145E+03   -0.44691E-04   -0.15086E-04  1425   0.239E-02    0.174E-02
RMM:   5    -0.351568660753E+03   -0.96081E-05   -0.38145E-05  1392   0.103E-02    0.765E-03
RMM:   6    -0.351568664502E+03   -0.37495E-05   -0.13534E-06   898   0.227E-03    0.695E-03
RMM:   7    -0.351568669784E+03   -0.52820E-05   -0.39970E-07   860   0.141E-03    0.737E-03
RMM:   8    -0.351568669408E+03    0.37604E-06   -0.23150E-06   920   0.295E-03
  21 F= -.35288067E+03 E0= -.35288067E+03  d E =-.135782E-01
 curvature:   0.07 expect dE= 0.327E-02 dE for cont linesearch  0.172E-03
 ZBRENT: bracketing found
 ZBRENT: interpolating
 opt :   0.7620  next Energy=  -352.883533 (dE=-0.164E-01)
 bond charge predicted
       N       E                     dE             d eps       ncg     rms          rms(c)
RMM:   1    -0.351577245655E+03   -0.85759E-02   -0.26071E+00  1340   0.450E+00    0.252E-01
RMM:   2    -0.351571501573E+03    0.57441E-02   -0.14882E-02  1340   0.288E-01    0.782E-02
RMM:   3    -0.351571744042E+03   -0.24247E-03   -0.24868E-03  1340   0.783E-02    0.111E-02
RMM:   4    -0.351571775013E+03   -0.30971E-04   -0.13479E-04  1353   0.197E-02    0.791E-03
RMM:   5    -0.351571791774E+03   -0.16761E-04   -0.17230E-05  1227   0.531E-03    0.526E-03
RMM:   6    -0.351571794981E+03   -0.32070E-05   -0.72074E-06  1163   0.518E-03    0.486E-03
RMM:   7    -0.351571792912E+03    0.20690E-05   -0.29873E-07   860   0.152E-03    0.430E-03
RMM:   8    -0.351571793251E+03   -0.33833E-06   -0.14885E-07   786   0.905E-04
  22 F= -.35288366E+03 E0= -.35288366E+03  d E =-.165744E-01
 curvature:  -1.12 expect dE=-0.176E-01 dE for cont linesearch -0.316E-06
 trial: gam= 0.49782 g(F)=  0.157E-01 g(S)=  0.000E+00 ort = 0.202E-03 (trialstep = 0.257E+00)
 search vector abs. value=  0.518E-01
 bond charge predicted
       N       E                     dE             d eps       ncg     rms          rms(c)
RMM:   1    -0.351575992638E+03   -0.41997E-02   -0.64833E-01  1340   0.225E+00    0.102E-01
RMM:   2    -0.351573355422E+03    0.26372E-02   -0.44476E-03  1340   0.161E-01    0.957E-02
RMM:   3    -0.351573455343E+03   -0.99920E-04   -0.55088E-04  1340   0.413E-02    0.635E-02
RMM:   4    -0.351574149323E+03   -0.69398E-03   -0.32571E-04  1340   0.376E-02    0.451E-02
RMM:   5    -0.351574595403E+03   -0.44608E-03   -0.10059E-04  1340   0.224E-02    0.319E-02
RMM:   6    -0.351574725767E+03   -0.13036E-03   -0.57383E-05  1400   0.143E-02    0.173E-02
RMM:   7    -0.351574830615E+03   -0.10485E-03   -0.48243E-05  1342   0.131E-02    0.118E-02
RMM:   8    -0.351574856610E+03   -0.25995E-04   -0.21498E-05  1340   0.103E-02    0.545E-03
RMM:   9    -0.351574862019E+03   -0.54093E-05   -0.13776E-06   862   0.279E-03    0.457E-03
RMM:  10    -0.351574876230E+03   -0.14211E-04   -0.22149E-05  1340   0.855E-03    0.884E-03
RMM:  11    -0.351574879790E+03   -0.35605E-05   -0.19455E-06   920   0.326E-03    0.606E-03
RMM:  12    -0.351574883117E+03   -0.33265E-05   -0.37612E-06  1082   0.372E-03    0.378E-03
RMM:  13    -0.351574881853E+03    0.12640E-05   -0.19513E-07   860   0.132E-03    0.387E-03
RMM:  14    -0.351574886086E+03   -0.42334E-05   -0.13891E-08   466   0.557E-04    0.385E-03
RMM:  15    -0.351574887174E+03   -0.10875E-05   -0.36702E-08   513   0.597E-04    0.376E-03
RMM:  16    -0.351574888671E+03   -0.14972E-05   -0.12588E-08   447   0.528E-04    0.374E-03
RMM:  17    -0.351574888966E+03   -0.29525E-06    0.00000E+00   380   0.442E-04
  23 F= -.35288665E+03 E0= -.35288665E+03  d E =-.298542E-02
 trial-energy change:   -0.002985  1 .order   -0.002950   -0.004055   -0.001846
 step:   0.4411(harm=  0.4712)  dis= 0.00401  next Energy=  -352.887324 (dE=-0.366E-02)
 bond charge predicted
       N       E                     dE             d eps       ncg     rms          rms(c)
RMM:   1    -0.351576297818E+03   -0.14091E-02   -0.33449E-01  1340   0.162E+00    0.736E-02
RMM:   2    -0.351575704200E+03    0.59362E-03   -0.19796E-03  1340   0.105E-01    0.106E-02
RMM:   3    -0.351575736924E+03   -0.32724E-04   -0.18954E-04  1405   0.196E-02    0.544E-03
RMM:   4    -0.351575740997E+03   -0.40723E-05   -0.71603E-06  1137   0.531E-03    0.380E-03
RMM:   5    -0.351575742761E+03   -0.17644E-05   -0.22123E-06   915   0.280E-03    0.403E-03
RMM:   6    -0.351575743342E+03   -0.58131E-06   -0.25590E-07   860   0.115E-03
  24 F= -.35288742E+03 E0= -.35288742E+03  d E =-.376056E-02
 curvature:  -0.76 expect dE=-0.439E-02 dE for cont linesearch -0.102E-04
 trial: gam= 0.29506 g(F)=  0.579E-02 g(S)=  0.000E+00 ort = 0.836E-03 (trialstep = 0.294E+00)
 search vector abs. value=  0.108E-01
 bond charge predicted
       N       E                     dE             d eps       ncg     rms          rms(c)
RMM:   1    -0.351577435542E+03   -0.16928E-02   -0.19798E-01  1340   0.123E+00    0.685E-02
RMM:   2    -0.351576401853E+03    0.10337E-02   -0.35059E-03  1401   0.119E-01    0.831E-02
RMM:   3    -0.351576000985E+03    0.40087E-03   -0.57221E-04  1346   0.432E-02    0.114E-01
RMM:   4    -0.351576537724E+03   -0.53674E-03   -0.54474E-03  1340   0.138E-01    0.662E-02
RMM:   5    -0.351576864352E+03   -0.32663E-03   -0.22080E-04  1340   0.337E-02    0.278E-02
RMM:   6    -0.351577031702E+03   -0.16735E-03   -0.19711E-04  1376   0.263E-02    0.728E-03
RMM:   7    -0.351577080417E+03   -0.48715E-04   -0.32587E-05  1340   0.121E-02    0.117E-02
RMM:   8    -0.351577142978E+03   -0.62561E-04   -0.95359E-06  1280   0.615E-03    0.693E-03
RMM:   9    -0.351577153194E+03   -0.10216E-04   -0.61339E-07   860   0.186E-03    0.714E-03
RMM:  10    -0.351577151392E+03    0.18018E-05   -0.91941E-07   860   0.220E-03    0.552E-03
RMM:  11    -0.351577153467E+03   -0.20743E-05   -0.21562E-06   920   0.302E-03    0.393E-03
RMM:  12    -0.351577155655E+03   -0.21884E-05   -0.27153E-07   860   0.137E-03    0.390E-03
RMM:  13    -0.351577158661E+03   -0.30056E-05   -0.13778E-07   860   0.991E-04    0.378E-03
RMM:  14    -0.351577162114E+03   -0.34530E-05   -0.10877E-07   817   0.900E-04    0.364E-03
RMM:  15    -0.351577162073E+03    0.40234E-07   -0.13492E-07   738   0.803E-04
  25 F= -.35288887E+03 E0= -.35288887E+03  d E =-.144672E-02
 trial-energy change:   -0.001447  1 .order   -0.001443   -0.001771   -0.001115
 step:   0.7927(harm=  0.7927)  dis= 0.00329  next Energy=  -352.889814 (dE=-0.239E-02)
 bond charge predicted
       N       E                     dE             d eps       ncg     rms          rms(c)
RMM:   1    -0.351578855389E+03   -0.16933E-02   -0.57237E-01  1340   0.210E+00    0.116E-01
RMM:   2    -0.351577989462E+03    0.86593E-03   -0.46987E-03  1340   0.152E-01    0.207E-02
RMM:   3    -0.351578046588E+03   -0.57126E-04   -0.58857E-04  1462   0.388E-02    0.138E-02
RMM:   4    -0.351578055057E+03   -0.84696E-05   -0.20812E-05  1340   0.985E-03    0.566E-03
RMM:   5    -0.351578055396E+03   -0.33889E-06   -0.37503E-06  1078   0.395E-03
  26 F= -.35288981E+03 E0= -.35288981E+03  d E =-.238888E-02
 curvature:  -0.71 expect dE=-0.372E-02 dE for cont linesearch -0.284E-06
 trial: gam= 0.97518 g(F)=  0.524E-02 g(S)=  0.000E+00 ort =-0.658E-04 (trialstep = 0.276E+00)
 search vector abs. value=  0.154E-01
 bond charge predicted
       N       E                     dE             d eps       ncg     rms          rms(c)
RMM:   1    -0.351579554681E+03   -0.14996E-02   -0.12641E-01  1340   0.101E+00    0.516E-02
RMM:   2    -0.351579083507E+03    0.47117E-03   -0.39230E-03  1399   0.121E-01    0.123E-01
RMM:   3    -0.351578898438E+03    0.18507E-03   -0.76338E-04  1340   0.532E-02    0.622E-02
RMM:   4    -0.351579134920E+03   -0.23648E-03   -0.12439E-03  1340   0.692E-02    0.315E-02
RMM:   5    -0.351579244458E+03   -0.10954E-03   -0.23236E-05  1342   0.114E-02    0.251E-02
RMM:   6    -0.351579336450E+03   -0.91992E-04   -0.11819E-04  1340   0.230E-02    0.942E-03
RMM:   7    -0.351579356297E+03   -0.19847E-04   -0.43042E-06  1125   0.417E-03    0.882E-03
RMM:   8    -0.351579395289E+03   -0.38992E-04   -0.82551E-06  1189   0.554E-03    0.408E-03
RMM:   9    -0.351579407559E+03   -0.12270E-04   -0.57304E-06  1099   0.428E-03    0.539E-03
RMM:  10    -0.351579407038E+03    0.52095E-06   -0.28837E-06   972   0.364E-03
  27 F= -.35289108E+03 E0= -.35289108E+03  d E =-.126423E-02
 trial-energy change:   -0.001264  1 .order   -0.001252   -0.001429   -0.001075
 step:   0.8021(harm=  1.1143)  dis= 0.00345  next Energy=  -352.892184 (dE=-0.237E-02)
 bond charge predicted
       N       E                     dE             d eps       ncg     rms          rms(c)
RMM:   1    -0.351581546991E+03   -0.21394E-02   -0.45843E-01  1340   0.192E+00    0.976E-02
RMM:   2    -0.351580930709E+03    0.61628E-03   -0.33425E-03  1341   0.130E-01    0.160E-02
RMM:   3    -0.351580979461E+03   -0.48752E-04   -0.39730E-04  1465   0.274E-02    0.942E-03
RMM:   4    -0.351580976600E+03    0.28610E-05   -0.11681E-05  1214   0.695E-03    0.487E-03
RMM:   5    -0.351580975369E+03    0.12311E-05   -0.32445E-06  1000   0.355E-03    0.373E-03
RMM:   6    -0.351580973241E+03    0.21283E-05   -0.42913E-07   860   0.151E-03    0.365E-03
RMM:   7    -0.351580972581E+03    0.65974E-06   -0.95281E-08   661   0.729E-04
  28 F= -.35289248E+03 E0= -.35289248E+03  d E =-.266378E-02
 curvature:  -1.43 expect dE=-0.811E-02 dE for cont linesearch -0.196E-03
 ZBRENT: increasing intervall
 opt :   1.8541  next Energy=  -352.891439 (dE=-0.163E-02)
 bond charge predicted
       N       E                     dE             d eps       ncg     rms          rms(c)
RMM:   1    -0.351582624251E+03   -0.16510E-02   -0.18337E+00  1340   0.383E+00    0.195E-01
RMM:   2    -0.351579987245E+03    0.26370E-02   -0.13388E-02  1341   0.259E-01    0.301E-02
RMM:   3    -0.351580255723E+03   -0.26848E-03   -0.16216E-03  1465   0.556E-02    0.711E-03
RMM:   4    -0.351580268012E+03   -0.12288E-04   -0.34423E-05  1335   0.110E-02    0.391E-03
RMM:   5    -0.351580270399E+03   -0.23873E-05   -0.76428E-06  1115   0.455E-03    0.587E-03
RMM:   6    -0.351580275436E+03   -0.50373E-05   -0.19063E-06   879   0.289E-03    0.414E-03
RMM:   7    -0.351580281108E+03   -0.56718E-05   -0.11341E-06   860   0.224E-03    0.360E-03
RMM:   8    -0.351580284244E+03   -0.31359E-05   -0.19783E-07   860   0.104E-03    0.356E-03
RMM:   9    -0.351580286200E+03   -0.19557E-05   -0.69652E-08   676   0.660E-04    0.365E-03
RMM:  10    -0.351580287430E+03   -0.12306E-05   -0.73318E-08   673   0.658E-04    0.356E-03
RMM:  11    -0.351580287748E+03   -0.31794E-06   -0.66792E-08   694   0.658E-04
  29 F= -.35289146E+03 E0= -.35289146E+03  d E =-.164891E-02
 curvature:   7.54 expect dE= 0.216E+00 dE for cont linesearch  0.571E-02
 ZBRENT: bracketing found
 ZBRENT: interpolating
 opt :   1.1165  next Energy=  -352.892705 (dE=-0.289E-02)
 bond charge predicted
       N       E                     dE             d eps       ncg     rms          rms(c)
RMM:   1    -0.351582382469E+03   -0.20950E-02   -0.90039E-01  1340   0.269E+00    0.137E-01
RMM:   2    -0.351581164428E+03    0.12180E-02   -0.65951E-03  1341   0.181E-01    0.174E-02
RMM:   3    -0.351581296133E+03   -0.13171E-03   -0.78858E-04  1465   0.391E-02    0.514E-03
RMM:   4    -0.351581298581E+03   -0.24475E-05   -0.14084E-05  1163   0.702E-03    0.424E-03
RMM:   5    -0.351581298885E+03   -0.30423E-06   -0.18189E-06   907   0.211E-03
  30 F= -.35289270E+03 E0= -.35289270E+03  d E =-.289118E-02
 curvature:  -0.30 expect dE=-0.299E-02 dE for cont linesearch -0.102E-07
 trial: gam= 1.82328 g(F)=  0.989E-02 g(S)=  0.000E+00 ort = 0.228E-04 (trialstep = 0.112E+00)
 search vector abs. value=  0.611E-01
 bond charge predicted
       N       E                     dE             d eps       ncg     rms          rms(c)
RMM:   1    -0.351582423753E+03   -0.11252E-02   -0.78402E-02  1340   0.793E-01    0.460E-02
RMM:   2    -0.351581921868E+03    0.50188E-03   -0.64920E-04  1346   0.571E-02    0.435E-02
RMM:   3    -0.351581720650E+03    0.20122E-03   -0.32000E-04  1340   0.324E-02    0.112E-02
RMM:   4    -0.351582029994E+03   -0.30934E-03   -0.15613E-04  1397   0.226E-02    0.210E-02
RMM:   5    -0.351582130907E+03   -0.10091E-03   -0.10127E-04  1340   0.200E-02    0.965E-03
RMM:   6    -0.351582253688E+03   -0.12278E-03   -0.55644E-06  1135   0.461E-03    0.828E-03
RMM:   7    -0.351582305684E+03   -0.51996E-04   -0.11850E-05  1261   0.721E-03    0.593E-03
RMM:   8    -0.351582322872E+03   -0.17189E-04   -0.58889E-07   860   0.246E-03    0.457E-03
RMM:   9    -0.351582322319E+03    0.55314E-06   -0.22933E-06   922   0.320E-03
  31 F= -.35289372E+03 E0= -.35289372E+03  d E =-.101268E-02
 ZBRENT: can't locate minimum, use default step
 trial-energy change:   -0.001013  1 .order   -0.001024   -0.001110   -0.000937
 step:   0.4473(harm=  0.7186)  dis= 0.00470  next Energy=  -352.896271 (dE=-0.357E-02)
 bond charge predicted
       N       E                     dE             d eps       ncg     rms          rms(c)
RMM:   1    -0.351585279239E+03   -0.29564E-02   -0.70593E-01  1340   0.238E+00    0.138E-01
RMM:   2    -0.351584276871E+03    0.10024E-02   -0.44328E-03  1340   0.159E-01    0.239E-02
RMM:   3    -0.351584382826E+03   -0.10595E-03   -0.60444E-04  1450   0.367E-02    0.999E-03
RMM:   4    -0.351584383962E+03   -0.11359E-05   -0.13714E-05  1138   0.726E-03    0.610E-03
RMM:   5    -0.351584384419E+03   -0.45631E-06   -0.36792E-06  1025   0.355E-03
  32 F= -.35289575E+03 E0= -.35289575E+03  d E =-.304354E-02
 curvature:  -1.77 expect dE=-0.894E-02 dE for cont linesearch -0.413E-03
 ZBRENT: increasing intervall
 opt :   1.1182  next Energy=  -352.895189 (dE=-0.249E-02)
 bond charge predicted
       N       E                     dE             d eps       ncg     rms          rms(c)
RMM:   1    -0.351587576602E+03   -0.31926E-02   -0.28242E+00  1340   0.476E+00    0.276E-01
RMM:   2    -0.351583479766E+03    0.40968E-02   -0.17386E-02  1340   0.316E-01    0.564E-02
RMM:   3    -0.351583890813E+03   -0.41105E-03   -0.21596E-03  1450   0.679E-02    0.967E-03
RMM:   4    -0.351583902584E+03   -0.11771E-04   -0.63675E-05  1402   0.151E-02    0.572E-03
RMM:   5    -0.351583911675E+03   -0.90907E-05   -0.68377E-06  1040   0.414E-03    0.539E-03
RMM:   6    -0.351583906550E+03    0.51245E-05   -0.91138E-07   862   0.223E-03    0.437E-03
RMM:   7    -0.351583905118E+03    0.14322E-05   -0.20809E-06   916   0.292E-03    0.362E-03
RMM:   8    -0.351583906408E+03   -0.12898E-05   -0.44120E-07   860   0.147E-03    0.369E-03
RMM:   9    -0.351583907122E+03   -0.71476E-06   -0.65534E-08   631   0.678E-04
  33 F= -.35289521E+03 E0= -.35289521E+03  d E =-.250825E-02
 curvature:   2.39 expect dE= 0.621E-01 dE for cont linesearch  0.114E-02
 ZBRENT: bracketing found
 ZBRENT: interpolating
 opt :   0.7236  next Energy=  -352.896269 (dE=-0.357E-02)
 bond charge predicted
       N       E                     dE             d eps       ncg     rms          rms(c)
RMM:   1    -0.351586081286E+03   -0.21749E-02   -0.97579E-01  1340   0.280E+00    0.163E-01
RMM:   2    -0.351584771787E+03    0.13095E-02   -0.61768E-03  1340   0.187E-01    0.245E-02
RMM:   3    -0.351584913574E+03   -0.14179E-03   -0.72639E-04  1451   0.395E-02    0.498E-03
RMM:   4    -0.351584922681E+03   -0.91064E-05   -0.13465E-05  1264   0.707E-03    0.422E-03
RMM:   5    -0.351584928046E+03   -0.53657E-05   -0.16181E-06   921   0.202E-03    0.390E-03
RMM:   6    -0.351584932084E+03   -0.40381E-05   -0.39519E-07   860   0.138E-03    0.359E-03
RMM:   7    -0.351584932223E+03   -0.13897E-06   -0.22959E-07   736   0.980E-04
  34 F= -.35289627E+03 E0= -.35289627E+03  d E =-.356673E-02
 curvature:  -1.10 expect dE=-0.105E-01 dE for cont linesearch -0.152E-07
 trial: gam= 0.97355 g(F)=  0.954E-02 g(S)=  0.000E+00 ort = 0.291E-04 (trialstep = 0.212E+00)
 search vector abs. value=  0.675E-01
 bond charge predicted
       N       E                     dE             d eps       ncg     rms          rms(c)
RMM:   1    -0.351586944895E+03   -0.20128E-02   -0.18414E-01  1340   0.123E+00    0.733E-02
RMM:   2    -0.351586497551E+03    0.44734E-03   -0.13997E-03  1340   0.903E-02    0.481E-02
RMM:   3    -0.351586482300E+03    0.15251E-04   -0.41499E-04  1340   0.365E-02    0.163E-02
RMM:   4    -0.351586573259E+03   -0.90959E-04   -0.82946E-05  1459   0.143E-02    0.178E-02
RMM:   5    -0.351586654213E+03   -0.80954E-04   -0.86733E-06  1220   0.589E-03    0.188E-02
RMM:   6    -0.351586699448E+03   -0.45235E-04   -0.16383E-05  1340   0.800E-03    0.102E-02
RMM:   7    -0.351586733376E+03   -0.33928E-04   -0.18505E-05  1340   0.775E-03    0.375E-03
RMM:   8    -0.351586752802E+03   -0.19426E-04   -0.23719E-06   951   0.301E-03    0.425E-03
RMM:   9    -0.351586759038E+03   -0.62357E-05   -0.33156E-07   860   0.138E-03    0.404E-03
RMM:  10    -0.351586761316E+03   -0.22783E-05   -0.11863E-06   860   0.240E-03    0.359E-03
RMM:  11    -0.351586762472E+03   -0.11560E-05   -0.32623E-07   856   0.131E-03    0.370E-03
RMM:  12    -0.351586762371E+03    0.10087E-06   -0.77045E-09   433   0.474E-04
  35 F= -.35289813E+03 E0= -.35289813E+03  d E =-.186390E-02
 ZBRENT: can't locate minimum, use default step
 trial-energy change:   -0.001864  1 .order   -0.001868   -0.002028   -0.001708
 step:   0.8477(harm=  1.3404)  dis= 0.01110  next Energy=  -352.902684 (dE=-0.641E-02)
 bond charge predicted
       N       E                     dE             d eps       ncg     rms          rms(c)
RMM:   1    -0.351592009092E+03   -0.52466E-02   -0.16561E+00  1340   0.368E+00    0.220E-01
RMM:   2    -0.351590061530E+03    0.19476E-02   -0.11286E-02  1340   0.253E-01    0.287E-02
RMM:   3    -0.351590313920E+03   -0.25239E-03   -0.13295E-03  1463   0.524E-02    0.128E-02
RMM:   4    -0.351590320012E+03   -0.60917E-05   -0.46450E-05  1373   0.132E-02    0.495E-03
RMM:   5    -0.351590329233E+03   -0.92212E-05   -0.67587E-06  1118   0.464E-03    0.413E-03
RMM:   6    -0.351590330438E+03   -0.12047E-05   -0.92309E-07   862   0.213E-03    0.361E-03
RMM:   7    -0.351590333646E+03   -0.32082E-05   -0.59234E-07   856   0.165E-03    0.377E-03
RMM:   8    -0.351590333679E+03   -0.32591E-07   -0.17486E-07   860   0.112E-03
  36 F= -.35290181E+03 E0= -.35290181E+03  d E =-.553929E-02
 curvature:  -3.83 expect dE=-0.361E-01 dE for cont linesearch -0.696E-03
 ZBRENT: increasing intervall
 opt :   2.1193  next Energy=  -352.900475 (dE=-0.420E-02)
 bond charge predicted
       N       E                     dE             d eps       ncg     rms          rms(c)
RMM:   1    -0.351595759669E+03   -0.54260E-02   -0.66106E+00  1340   0.736E+00    0.442E-01
RMM:   2    -0.351587334387E+03    0.84253E-02   -0.44698E-02  1340   0.508E-01    0.960E-02
RMM:   3    -0.351588507509E+03   -0.11731E-02   -0.57266E-03  1463   0.107E-01    0.166E-02
RMM:   4    -0.351588546036E+03   -0.38528E-04   -0.11509E-04  1434   0.195E-02    0.744E-03
RMM:   5    -0.351588557105E+03   -0.11068E-04   -0.16434E-05  1146   0.612E-03    0.431E-03
RMM:   6    -0.351588565861E+03   -0.87564E-05   -0.90649E-07   872   0.216E-03    0.398E-03
RMM:   7    -0.351588572352E+03   -0.64906E-05   -0.12795E-06   874   0.217E-03    0.471E-03
RMM:   8    -0.351588571515E+03    0.83623E-06   -0.47716E-07   860   0.146E-03
  37 F= -.35290027E+03 E0= -.35290027E+03  d E =-.399664E-02
 curvature:   7.34 expect dE= 0.409E+00 dE for cont linesearch  0.399E-02
 ZBRENT: bracketing found
 ZBRENT: interpolating
 opt :   1.3138  next Energy=  -352.902626 (dE=-0.636E-02)
 bond charge predicted
       N       E                     dE             d eps       ncg     rms          rms(c)
RMM:   1    -0.351593425259E+03   -0.48529E-02   -0.26467E+00  1340   0.466E+00    0.279E-01
RMM:   2    -0.351590708185E+03    0.27171E-02   -0.17877E-02  1340   0.319E-01    0.333E-02
RMM:   3    -0.351591111931E+03   -0.40375E-03   -0.21668E-03  1466   0.673E-02    0.847E-03
RMM:   4    -0.351591110987E+03    0.94383E-06   -0.45208E-05  1423   0.127E-02    0.463E-03
RMM:   5    -0.351591108579E+03    0.24085E-05   -0.63129E-06  1013   0.379E-03    0.402E-03
RMM:   6    -0.351591106067E+03    0.25114E-05   -0.46967E-07   860   0.144E-03    0.366E-03
RMM:   7    -0.351591105265E+03    0.80234E-06   -0.15645E-07   622   0.800E-04
  38 F= -.35290266E+03 E0= -.35290266E+03  d E =-.638969E-02
 curvature:  -1.50 expect dE=-0.298E-01 dE for cont linesearch -0.287E-06
 trial: gam= 2.06666 g(F)=  0.198E-01 g(S)=  0.000E+00 ort = 0.114E-03 (trialstep = 0.946E-01)
 search vector abs. value=  0.309E+00
 bond charge predicted
       N       E                     dE             d eps       ncg     rms          rms(c)
RMM:   1    -0.351593030027E+03   -0.19240E-02   -0.21406E-01  1340   0.130E+00    0.766E-02
RMM:   2    -0.351592759203E+03    0.27082E-03   -0.17536E-03  1358   0.965E-02    0.638E-02
RMM:   3    -0.351592781101E+03   -0.21897E-04   -0.20824E-03  1340   0.849E-02    0.491E-02
RMM:   4    -0.351592800613E+03   -0.19512E-04   -0.39515E-04  1342   0.415E-02    0.124E-02
RMM:   5    -0.351592815403E+03   -0.14790E-04   -0.30490E-05  1348   0.120E-02    0.549E-03
RMM:   6    -0.351592825540E+03   -0.10138E-04   -0.14417E-05  1340   0.762E-03    0.796E-03
RMM:   7    -0.351592829814E+03   -0.42736E-05   -0.28685E-06   988   0.369E-03    0.448E-03
RMM:   8    -0.351592835457E+03   -0.56428E-05   -0.38110E-06  1113   0.383E-03    0.422E-03
RMM:   9    -0.351592838161E+03   -0.27042E-05   -0.89824E-07   860   0.243E-03    0.360E-03
RMM:  10    -0.351592841550E+03   -0.33890E-05   -0.72500E-07   860   0.185E-03    0.381E-03
RMM:  11    -0.351592842370E+03   -0.82027E-06   -0.15023E-07   860   0.957E-04
  39 F= -.35290449E+03 E0= -.35290449E+03  d E =-.183391E-02
 ZBRENT: can't locate minimum, use default step
 trial-energy change:   -0.001834  1 .order   -0.001821   -0.001894   -0.001747
 step:   0.3783(harm=  1.2201)  dis= 0.01078  next Energy=  -352.914878 (dE=-0.122E-01)
 bond charge predicted
       N       E                     dE             d eps       ncg     rms          rms(c)
RMM:   1    -0.351599090894E+03   -0.62493E-02   -0.19264E+00  1340   0.390E+00    0.229E-01
RMM:   2    -0.351596922821E+03    0.21681E-02   -0.13565E-02  1340   0.273E-01    0.337E-02
RMM:   3    -0.351597183537E+03   -0.26072E-03   -0.17549E-03  1462   0.630E-02    0.176E-02
RMM:   4    -0.351597190346E+03   -0.68096E-05   -0.52274E-05  1362   0.145E-02    0.621E-03
RMM:   5    -0.351597195892E+03   -0.55459E-05   -0.64314E-06  1126   0.439E-03    0.404E-03
RMM:   6    -0.351597198322E+03   -0.24298E-05   -0.47553E-07   860   0.151E-03    0.422E-03
RMM:   7    -0.351597199320E+03   -0.99789E-06   -0.89996E-07   860   0.193E-03
  40 F= -.35290914E+03 E0= -.35290914E+03  d E =-.648487E-02
 curvature:  -4.14 expect dE=-0.521E-01 dE for cont linesearch -0.267E-02
 ZBRENT: increasing intervall
 opt :   0.9457  next Energy=  -352.914659 (dE=-0.120E-01)
 bond charge predicted
       N       E                     dE             d eps       ncg     rms          rms(c)
RMM:   1    -0.351610741114E+03   -0.13543E-01   -0.77010E+00  1340   0.780E+00    0.458E-01
RMM:   2    -0.351601187780E+03    0.95533E-02   -0.54422E-02  1340   0.549E-01    0.721E-02
RMM:   3    -0.351602324850E+03   -0.11371E-02   -0.59912E-03  1464   0.114E-01    0.104E-02
RMM:   4    -0.351602337877E+03   -0.13027E-04   -0.11766E-04  1425   0.209E-02    0.460E-03
RMM:   5    -0.351602337760E+03    0.11764E-06   -0.16129E-05  1147   0.554E-03    0.391E-03
RMM:   6    -0.351602346021E+03   -0.82609E-05   -0.90456E-07   877   0.201E-03    0.410E-03
RMM:   7    -0.351602353020E+03   -0.69991E-05   -0.14807E-06   883   0.231E-03    0.465E-03
RMM:   8    -0.351602353481E+03   -0.46115E-06   -0.23669E-07   860   0.109E-03
  41 F= -.35291490E+03 E0= -.35291490E+03  d E =-.122416E-01
 curvature:  -8.56 expect dE=-0.145E+00 dE for cont linesearch -0.102E-02
 ZBRENT: increasing intervall
 opt :   2.0805  next Energy=  -352.912675 (dE=-0.100E-01)
 bond charge predicted
       N       E                     dE             d eps       ncg     rms          rms(c)
RMM:   1    -0.351640467322E+03   -0.38114E-01   -0.30772E+01  1340   0.156E+01    0.913E-01
RMM:   2    -0.351595050459E+03    0.45417E-01   -0.21822E-01  1340   0.110E+00    0.134E-01
RMM:   3    -0.351599533128E+03   -0.44827E-02   -0.23942E-02  1465   0.227E-01    0.234E-02
RMM:   4    -0.351599710882E+03   -0.17775E-03   -0.47252E-04  1408   0.426E-02    0.261E-02
RMM:   5    -0.351599785867E+03   -0.74985E-04   -0.18118E-04  1340   0.236E-02    0.809E-03
RMM:   6    -0.351599805426E+03   -0.19559E-04   -0.93296E-06  1159   0.536E-03    0.797E-03
RMM:   7    -0.351599819668E+03   -0.14242E-04   -0.10887E-05  1298   0.629E-03    0.381E-03
RMM:   8    -0.351599816938E+03    0.27291E-05   -0.12991E-06   860   0.282E-03    0.441E-03
RMM:   9    -0.351599810744E+03    0.61940E-05   -0.11250E-06   860   0.235E-03    0.535E-03
RMM:  10    -0.351599809345E+03    0.13993E-05   -0.15064E-07   860   0.951E-04    0.497E-03
RMM:  11    -0.351599807527E+03    0.18183E-05   -0.45961E-07   860   0.149E-03    0.415E-03
RMM:  12    -0.351599806989E+03    0.53820E-06   -0.59306E-08   647   0.607E-04
  42 F= -.35291361E+03 E0= -.35291361E+03  d E =-.109481E-01
 curvature:  18.66 expect dE= 0.131E+01 dE for cont linesearch  0.435E-02
 ZBRENT: bracketing found
 ZBRENT: interpolating
 opt :   1.4189  next Energy=  -352.916337 (dE=-0.137E-01)
 bond charge predicted
       N       E                     dE             d eps       ncg     rms          rms(c)
RMM:   1    -0.351611379185E+03   -0.11572E-01   -0.10400E+01  1340   0.906E+00    0.542E-01
RMM:   2    -0.351601637807E+03    0.97414E-02   -0.78865E-02  1340   0.656E-01    0.838E-02
RMM:   3    -0.351603285110E+03   -0.16473E-02   -0.78199E-03  1473   0.130E-01    0.289E-02
RMM:   4    -0.351603299239E+03   -0.14128E-04   -0.34355E-04  1353   0.366E-02    0.185E-02
RMM:   5    -0.351603297851E+03    0.13882E-05   -0.28416E-05  1458   0.901E-03    0.130E-02
RMM:   6    -0.351603281679E+03    0.16171E-04   -0.13872E-05  1327   0.711E-03    0.645E-03
RMM:   7    -0.351603278056E+03    0.36231E-05   -0.93565E-07   860   0.245E-03    0.528E-03
RMM:   8    -0.351603279037E+03   -0.98069E-06   -0.19055E-06   875   0.306E-03
  43 F= -.35291634E+03 E0= -.35291634E+03  d E =-.136828E-01
 curvature:  -6.15 expect dE=-0.201E+00 dE for cont linesearch -0.214E-08
 trial: gam= 1.66297 g(F)=  0.326E-01 g(S)=  0.000E+00 ort = 0.103E-04 (trialstep = 0.125E+00)
 search vector abs. value=  0.886E+00
 bond charge predicted
       N       E                     dE             d eps       ncg     rms          rms(c)
RMM:   1    -0.351607712926E+03   -0.44349E-02   -0.11418E+00  1340   0.298E+00    0.164E-01
RMM:   2    -0.351606609495E+03    0.11034E-02   -0.16616E-02  1404   0.256E-01    0.158E-01
RMM:   3    -0.351605382260E+03    0.12272E-02   -0.26226E-03  1340   0.997E-02    0.122E-01
RMM:   4    -0.351606494830E+03   -0.11126E-02   -0.82836E-03  1340   0.164E-01    0.100E-01
RMM:   5    -0.351606491007E+03    0.38228E-05   -0.11127E-03  1342   0.713E-02    0.138E-02
RMM:   6    -0.351606599234E+03   -0.10823E-03   -0.16625E-04  1502   0.222E-02    0.135E-02
RMM:   7    -0.351606643425E+03   -0.44191E-04   -0.36659E-05  1342   0.107E-02    0.627E-03
RMM:   8    -0.351606670823E+03   -0.27398E-04   -0.13818E-06   860   0.295E-03    0.407E-03
RMM:   9    -0.351606664585E+03    0.62388E-05   -0.16253E-06   897   0.290E-03    0.371E-03
RMM:  10    -0.351606660327E+03    0.42572E-05   -0.36878E-07   860   0.138E-03    0.360E-03
RMM:  11    -0.351606659374E+03    0.95361E-06   -0.21646E-07   860   0.110E-03
  44 F= -.35291986E+03 E0= -.35291986E+03  d E =-.351558E-02
 trial-energy change:   -0.003516  1 .order   -0.003456   -0.004087   -0.002825
 step:   0.2936(harm=  0.4052)  dis= 0.01395  next Energy=  -352.921904 (dE=-0.556E-02)
 bond charge predicted
       N       E                     dE             d eps       ncg     rms          rms(c)
RMM:   1    -0.351611139535E+03   -0.44792E-02   -0.20654E+00  1340   0.401E+00    0.221E-01
RMM:   2    -0.351608896572E+03    0.22430E-02   -0.14984E-02  1342   0.281E-01    0.276E-02
RMM:   3    -0.351609145854E+03   -0.24928E-03   -0.17608E-03  1469   0.608E-02    0.120E-02
RMM:   4    -0.351609157029E+03   -0.11175E-04   -0.41687E-05  1380   0.126E-02    0.692E-03
RMM:   5    -0.351609156738E+03    0.29079E-06   -0.43264E-06   973   0.334E-03
  45 F= -.35292254E+03 E0= -.35292254E+03  d E =-.619933E-02
 curvature:  -4.62 expect dE=-0.273E-01 dE for cont linesearch -0.389E-03
 ZBRENT: increasing intervall
 opt :   0.6305  next Energy=  -352.920755 (dE=-0.441E-02)
 bond charge predicted
       N       E                     dE             d eps       ncg     rms          rms(c)
RMM:   1    -0.351615680670E+03   -0.65236E-02   -0.82521E+00  1340   0.802E+00    0.442E-01
RMM:   2    -0.351606153042E+03    0.95276E-02   -0.59283E-02  1340   0.566E-01    0.149E-01
RMM:   3    -0.351606921905E+03   -0.76886E-03   -0.90077E-03  1463   0.144E-01    0.163E-02
RMM:   4    -0.351606963623E+03   -0.41718E-04   -0.20863E-04  1443   0.269E-02    0.522E-03
RMM:   5    -0.351606980032E+03   -0.16409E-04   -0.23343E-05  1176   0.683E-03    0.614E-03
RMM:   6    -0.351606988882E+03   -0.88502E-05   -0.21383E-06   906   0.305E-03    0.533E-03
RMM:   7    -0.351606994624E+03   -0.57417E-05   -0.77368E-07   860   0.219E-03    0.422E-03
RMM:   8    -0.351606994062E+03    0.56167E-06   -0.52480E-06  1139   0.434E-03
  46 F= -.35292077E+03 E0= -.35292077E+03  d E =-.442272E-02
 curvature:  21.27 expect dE= 0.584E+00 dE for cont linesearch  0.945E-02
 ZBRENT: bracketing found
 ZBRENT: interpolating
 opt :   0.3957  next Energy=  -352.922983 (dE=-0.664E-02)
 bond charge predicted
       N       E                     dE             d eps       ncg     rms          rms(c)
RMM:   1    -0.351612989787E+03   -0.59952E-02   -0.39970E+00  1340   0.558E+00    0.310E-01
RMM:   2    -0.351608997215E+03    0.39926E-02   -0.29146E-02  1340   0.392E-01    0.456E-02
RMM:   3    -0.351609506529E+03   -0.50931E-03   -0.34668E-03  1472   0.852E-02    0.101E-02
RMM:   4    -0.351609508497E+03   -0.19688E-05   -0.69142E-05  1411   0.158E-02    0.710E-03
RMM:   5    -0.351609511051E+03   -0.25533E-05   -0.12984E-05  1220   0.594E-03    0.481E-03
RMM:   6    -0.351609511266E+03   -0.21520E-06   -0.13960E-06   869   0.266E-03
  47 F= -.35292301E+03 E0= -.35292301E+03  d E =-.666914E-02
 curvature:  -0.99 expect dE=-0.637E-02 dE for cont linesearch -0.216E-07
 trial: gam= 0.17887 g(F)=  0.642E-02 g(S)=  0.000E+00 ort = 0.139E-03 (trialstep = 0.179E+00)
 search vector abs. value=  0.348E-01
 bond charge predicted
       N       E                     dE             d eps       ncg     rms          rms(c)
RMM:   1    -0.351610646122E+03   -0.11351E-02   -0.19557E-01  1340   0.121E+00    0.680E-02
RMM:   2    -0.351610333081E+03    0.31304E-03   -0.22372E-03  1351   0.102E-01    0.609E-02
RMM:   3    -0.351610249533E+03    0.83549E-04   -0.17120E-04  1429   0.229E-02    0.514E-02
RMM:   4    -0.351610203595E+03    0.45938E-04   -0.42165E-04  1340   0.390E-02    0.143E-02
RMM:   5    -0.351610236298E+03   -0.32703E-04   -0.36266E-05  1386   0.117E-02    0.128E-02
RMM:   6    -0.351610292526E+03   -0.56228E-04   -0.96784E-06  1214   0.632E-03    0.590E-03
RMM:   7    -0.351610389227E+03   -0.96701E-04   -0.33016E-05  1340   0.107E-02    0.104E-02
RMM:   8    -0.351610413733E+03   -0.24506E-04   -0.23760E-05  1340   0.943E-03    0.496E-03
RMM:   9    -0.351610419707E+03   -0.59741E-05   -0.32304E-06  1040   0.405E-03    0.401E-03
RMM:  10    -0.351610419601E+03    0.10621E-06   -0.21458E-06   931   0.304E-03
  48 F= -.35292400E+03 E0= -.35292400E+03  d E =-.989848E-03
 trial-energy change:   -0.000990  1 .order   -0.000977   -0.001156   -0.000797
 step:   0.4386(harm=  0.5776)  dis= 0.00323  next Energy=  -352.924618 (dE=-0.161E-02)
 bond charge predicted
       N       E                     dE             d eps       ncg     rms          rms(c)
RMM:   1    -0.351611585658E+03   -0.11660E-02   -0.40915E-01  1340   0.175E+00    0.985E-02
RMM:   2    -0.351611048508E+03    0.53715E-03   -0.34160E-03  1344   0.129E-01    0.139E-02
RMM:   3    -0.351611096393E+03   -0.47885E-04   -0.40948E-04  1481   0.311E-02    0.949E-03
RMM:   4    -0.351611091597E+03    0.47959E-05   -0.86301E-06  1198   0.631E-03    0.520E-03
RMM:   5    -0.351611092021E+03   -0.42437E-06   -0.15228E-06   881   0.269E-03
  49 F= -.35292479E+03 E0= -.35292479E+03  d E =-.178191E-02
 curvature:  -1.37 expect dE=-0.254E-02 dE for cont linesearch -0.964E-04
 ZBRENT: increasing intervall
 opt :   0.9572  next Energy=  -352.924112 (dE=-0.110E-02)
 bond charge predicted
       N       E                     dE             d eps       ncg     rms          rms(c)
RMM:   1    -0.351612237379E+03   -0.11458E-02   -0.16382E+00  1340   0.350E+00    0.196E-01
RMM:   2    -0.351609974082E+03    0.22633E-02   -0.13388E-02  1344   0.256E-01    0.341E-02
RMM:   3    -0.351610175478E+03   -0.20140E-03   -0.15485E-03  1481   0.589E-02    0.603E-03
RMM:   4    -0.351610172559E+03    0.29182E-05   -0.23442E-05  1351   0.968E-03    0.390E-03
RMM:   5    -0.351610176048E+03   -0.34891E-05   -0.29027E-06   936   0.271E-03    0.386E-03
RMM:   6    -0.351610175200E+03    0.84847E-06   -0.36944E-07   860   0.124E-03
  50 F= -.35292412E+03 E0= -.35292412E+03  d E =-.111050E-02
 curvature:   9.68 expect dE= 0.974E-01 dE for cont linesearch  0.523E-02
 ZBRENT: bracketing found
 ZBRENT: interpolating
 opt :   0.5761  next Energy=  -352.924902 (dE=-0.189E-02)
 bond charge predicted
       N       E                     dE             d eps       ncg     rms          rms(c)
RMM:   1    -0.351612231042E+03   -0.20550E-02   -0.88335E-01  1340   0.257E+00    0.146E-01
RMM:   2    -0.351611031408E+03    0.11996E-02   -0.75367E-03  1343   0.192E-01    0.174E-02
RMM:   3    -0.351611151202E+03   -0.11979E-03   -0.80309E-04  1494   0.416E-02    0.520E-03
RMM:   4    -0.351611155998E+03   -0.47969E-05   -0.10952E-05  1219   0.680E-03    0.464E-03
RMM:   5    -0.351611157606E+03   -0.16072E-05   -0.97707E-07   886   0.186E-03    0.442E-03
RMM:   6    -0.351611158382E+03   -0.77652E-06   -0.18586E-07   676   0.797E-04
  51 F= -.35292492E+03 E0= -.35292492E+03  d E =-.191257E-02
 curvature:  -0.20 expect dE=-0.509E-03 dE for cont linesearch -0.167E-07
 trial: gam= 0.39246 g(F)=  0.255E-02 g(S)=  0.000E+00 ort = 0.540E-04 (trialstep = 0.259E+00)
 search vector abs. value=  0.796E-02
 bond charge predicted
       N       E                     dE             d eps       ncg     rms          rms(c)
RMM:   1    -0.351611897356E+03   -0.73975E-03   -0.10359E-01  1340   0.886E-01    0.377E-02
RMM:   2    -0.351611670162E+03    0.22719E-03   -0.10045E-03  1357   0.657E-02    0.308E-02
RMM:   3    -0.351611642179E+03    0.27983E-04   -0.20015E-04  1342   0.261E-02    0.246E-02
RMM:   4    -0.351611684362E+03   -0.42184E-04   -0.34613E-05  1353   0.119E-02    0.181E-02
RMM:   5    -0.351611724870E+03   -0.40508E-04   -0.84384E-06  1201   0.562E-03    0.221E-02
RMM:   6    -0.351611740445E+03   -0.15574E-04   -0.36338E-06  1035   0.479E-03    0.171E-02
RMM:   7    -0.351611754386E+03   -0.13941E-04   -0.90796E-06  1267   0.628E-03    0.954E-03
RMM:   8    -0.351611759091E+03   -0.47050E-05   -0.15436E-06   860   0.295E-03    0.612E-03
RMM:   9    -0.351611758286E+03    0.80491E-06   -0.17138E-06   866   0.301E-03
  52 F= -.35292550E+03 E0= -.35292550E+03  d E =-.579254E-03
 trial-energy change:   -0.000579  1 .order   -0.000580   -0.000666   -0.000494
 step:   1.0008(harm=  1.0008)  dis= 0.00340  next Energy=  -352.926212 (dE=-0.129E-02)
 bond charge predicted
       N       E                     dE             d eps       ncg     rms          rms(c)
RMM:   1    -0.351613679761E+03   -0.19207E-02   -0.85300E-01  1340   0.254E+00    0.108E-01
RMM:   2    -0.351612414902E+03    0.12649E-02   -0.66230E-03  1351   0.175E-01    0.160E-02
RMM:   3    -0.351612504452E+03   -0.89551E-04   -0.76826E-04  1488   0.373E-02    0.970E-03
RMM:   4    -0.351612508303E+03   -0.38503E-05   -0.20793E-05  1365   0.893E-03    0.667E-03
RMM:   5    -0.351612504010E+03    0.42930E-05   -0.13529E-06   889   0.222E-03    0.577E-03
RMM:   6    -0.351612501174E+03    0.28357E-05   -0.79170E-07   860   0.201E-03    0.435E-03
RMM:   7    -0.351612504195E+03   -0.30215E-05   -0.30877E-07   860   0.145E-03    0.375E-03
RMM:   8    -0.351612502928E+03    0.12676E-05   -0.17816E-07   860   0.988E-04    0.363E-03
RMM:   9    -0.351612500588E+03    0.23396E-05   -0.17925E-08   498   0.542E-04    0.355E-03
RMM:  10    -0.351612499632E+03    0.95665E-06   -0.23807E-08   531   0.602E-04
  53 F= -.35292619E+03 E0= -.35292619E+03  d E =-.126368E-02
 curvature:  -1.55 expect dE=-0.901E-02 dE for cont linesearch -0.170E-05
 trial: gam= 2.30415 g(F)=  0.583E-02 g(S)=  0.000E+00 ort =-0.934E-04 (trialstep = 0.680E-01)
 search vector abs. value=  0.476E-01
 bond charge predicted
       N       E                     dE             d eps       ncg     rms          rms(c)
RMM:   1    -0.351612915555E+03   -0.41497E-03   -0.38044E-02  1340   0.538E-01    0.233E-02
RMM:   2    -0.351612783626E+03    0.13193E-03   -0.30792E-04  1371   0.385E-02    0.233E-02
RMM:   3    -0.351612814546E+03   -0.30920E-04   -0.56564E-05  1359   0.129E-02    0.125E-02
RMM:   4    -0.351612831357E+03   -0.16811E-04   -0.10191E-05  1339   0.684E-03    0.550E-03
RMM:   5    -0.351612844085E+03   -0.12728E-04   -0.68439E-06  1200   0.527E-03    0.703E-03
RMM:   6    -0.351612842940E+03    0.11454E-05   -0.41539E-06  1081   0.416E-03    0.433E-03
RMM:   7    -0.351612848691E+03   -0.57517E-05   -0.80663E-07   860   0.225E-03    0.357E-03
RMM:   8    -0.351612850624E+03   -0.19327E-05   -0.22768E-07   860   0.118E-03    0.359E-03
RMM:   9    -0.351612851779E+03   -0.11555E-05   -0.38556E-08   593   0.577E-04    0.362E-03
RMM:  10    -0.351612852629E+03   -0.84946E-06   -0.32814E-08   547   0.570E-04
  54 F= -.35292654E+03 E0= -.35292654E+03  d E =-.355955E-03
 ZBRENT: can't locate minimum, use default step
 trial-energy change:   -0.000356  1 .order   -0.000365   -0.000382   -0.000349
 step:   0.2720(harm=  0.7911)  dis= 0.00237  next Energy=  -352.928408 (dE=-0.222E-02)
 bond charge predicted
       N       E                     dE             d eps       ncg     rms          rms(c)
RMM:   1    -0.351614257553E+03   -0.14058E-02   -0.34258E-01  1340   0.161E+00    0.691E-02
RMM:   2    -0.351613712013E+03    0.54554E-03   -0.24390E-03  1350   0.108E-01    0.111E-02
RMM:   3    -0.351613746570E+03   -0.34557E-04   -0.31460E-04  1478   0.246E-02    0.920E-03
RMM:   4    -0.351613742643E+03    0.39270E-05   -0.78301E-06  1107   0.545E-03    0.561E-03
RMM:   5    -0.351613744080E+03   -0.14375E-05   -0.14223E-06   879   0.250E-03    0.428E-03
RMM:   6    -0.351613745259E+03   -0.11789E-05   -0.34611E-07   856   0.137E-03    0.389E-03
RMM:   7    -0.351613741087E+03    0.41719E-05   -0.10005E-07   860   0.939E-04    0.379E-03
RMM:   8    -0.351613741709E+03   -0.62222E-06   -0.84576E-08   803   0.703E-04
  55 F= -.35292744E+03 E0= -.35292744E+03  d E =-.125479E-02
 curvature:  -1.63 expect dE=-0.532E-02 dE for cont linesearch -0.494E-03
 ZBRENT: increasing intervall
 opt :   0.6799  next Energy=  -352.928453 (dE=-0.226E-02)
 bond charge predicted
       N       E                     dE             d eps       ncg     rms          rms(c)
RMM:   1    -0.351616728538E+03   -0.29875E-02   -0.13712E+00  1340   0.323E+00    0.138E-01
RMM:   2    -0.351614507726E+03    0.22208E-02   -0.96429E-03  1350   0.215E-01    0.291E-02
RMM:   3    -0.351614646183E+03   -0.13846E-03   -0.11985E-03  1476   0.473E-02    0.656E-03
RMM:   4    -0.351614646263E+03   -0.79799E-07   -0.20840E-05  1231   0.850E-03    0.420E-03
RMM:   5    -0.351614645309E+03    0.95370E-06   -0.40600E-06   979   0.342E-03
  56 F= -.35292837E+03 E0= -.35292837E+03  d E =-.218176E-02
 curvature:  -3.33 expect dE=-0.818E-02 dE for cont linesearch -0.600E-04
 ZBRENT: extrapolating
 opt :   0.8114  next Energy=  -352.928431 (dE=-0.224E-02)
 bond charge predicted
       N       E                     dE             d eps       ncg     rms          rms(c)
RMM:   1    -0.351614916490E+03   -0.27023E-03   -0.14260E-01  1340   0.104E+00    0.450E-02
RMM:   2    -0.351614692249E+03    0.22424E-03   -0.10211E-03  1350   0.700E-02    0.638E-03
RMM:   3    -0.351614705180E+03   -0.12931E-04   -0.12219E-04  1470   0.149E-02    0.439E-03
RMM:   4    -0.351614705131E+03    0.49262E-07   -0.19389E-06   924   0.281E-03
  57 F= -.35292844E+03 E0= -.35292844E+03  d E =-.225021E-02
 curvature:  -3.38 expect dE=-0.100E-01 dE for cont linesearch -0.169E-06
 trial: gam= 0.37304 g(F)=  0.296E-02 g(S)=  0.000E+00 ort = 0.488E-04 (trialstep = 0.217E+00)
 search vector abs. value=  0.962E-02
 bond charge predicted
       N       E                     dE             d eps       ncg     rms          rms(c)
RMM:   1    -0.351615321204E+03   -0.61602E-03   -0.28646E-02  1340   0.491E-01    0.271E-02
RMM:   2    -0.351615043322E+03    0.27788E-03   -0.25007E-04  1342   0.355E-02    0.259E-02
RMM:   3    -0.351615157628E+03   -0.11431E-03   -0.34770E-04  1340   0.329E-02    0.454E-02
RMM:   4    -0.351615222842E+03   -0.65215E-04   -0.50780E-04  1340   0.427E-02    0.208E-02
RMM:   5    -0.351615284596E+03   -0.61754E-04   -0.11074E-05  1336   0.784E-03    0.111E-02
RMM:   6    -0.351615283094E+03    0.15026E-05   -0.20764E-05  1340   0.865E-03    0.590E-03
RMM:   7    -0.351615279439E+03    0.36546E-05   -0.82265E-07   860   0.221E-03    0.424E-03
RMM:   8    -0.351615279654E+03   -0.21548E-06   -0.13251E-06   860   0.255E-03
  58 F= -.35292901E+03 E0= -.35292901E+03  d E =-.574644E-03
 ZBRENT: can't locate minimum, use default step
 trial-energy change:   -0.000575  1 .order   -0.000586   -0.000645   -0.000526
 step:   0.8667(harm=  1.1759)  dis= 0.00289  next Energy=  -352.930189 (dE=-0.175E-02)
 bond charge predicted
       N       E                     dE             d eps       ncg     rms          rms(c)
RMM:   1    -0.351616649621E+03   -0.13702E-02   -0.25777E-01  1340   0.147E+00    0.797E-02
RMM:   2    -0.351616275190E+03    0.37443E-03   -0.16530E-03  1340   0.983E-02    0.114E-02
RMM:   3    -0.351616299602E+03   -0.24412E-04   -0.20323E-04  1440   0.213E-02    0.935E-03
RMM:   4    -0.351616296660E+03    0.29416E-05   -0.10273E-05  1184   0.631E-03    0.538E-03
RMM:   5    -0.351616294162E+03    0.24982E-05   -0.23932E-06   946   0.298E-03    0.392E-03
RMM:   6    -0.351616294772E+03   -0.61034E-06   -0.97025E-07   860   0.218E-03
  59 F= -.35293003E+03 E0= -.35293003E+03  d E =-.159233E-02
 curvature:  -1.70 expect dE=-0.353E-02 dE for cont linesearch -0.106E-03
 ZBRENT: extrapolating
 opt :   1.1711  next Energy=  -352.930149 (dE=-0.171E-02)
 bond charge predicted
       N       E                     dE             d eps       ncg     rms          rms(c)
RMM:   1    -0.351616483387E+03   -0.18922E-03   -0.56507E-02  1340   0.690E-01    0.373E-02
RMM:   2    -0.351616397421E+03    0.85966E-04   -0.36169E-04  1340   0.460E-02    0.654E-03
RMM:   3    -0.351616402849E+03   -0.54276E-05   -0.42528E-05  1425   0.960E-03    0.451E-03
RMM:   4    -0.351616403021E+03   -0.17205E-06   -0.91366E-07   888   0.192E-03
  60 F= -.35293014E+03 E0= -.35293014E+03  d E =-.170292E-02
 curvature:  -1.89 expect dE=-0.660E-02 dE for cont linesearch -0.288E-08
 trial: gam= 1.20422 g(F)=  0.349E-02 g(S)=  0.000E+00 ort = 0.383E-05 (trialstep = 0.225E+00)
 search vector abs. value=  0.175E-01
 bond charge predicted
       N       E                     dE             d eps       ncg     rms          rms(c)
RMM:   1    -0.351617102698E+03   -0.69985E-03   -0.63827E-02  1340   0.737E-01    0.411E-02
RMM:   2    -0.351616728137E+03    0.37456E-03   -0.74448E-04  1340   0.601E-02    0.275E-02
RMM:   3    -0.351616814270E+03   -0.86133E-04   -0.33490E-04  1340   0.337E-02    0.180E-02
[...]
RMM:   4    -0.351619765796E+03    0.18993E-06   -0.15494E-05  1319   0.773E-03    0.401E-03
RMM:   5    -0.351619768100E+03   -0.23046E-05   -0.15013E-06   894   0.232E-03    0.375E-03
RMM:   6    -0.351619771108E+03   -0.30082E-05   -0.45075E-07   860   0.148E-03    0.367E-03
RMM:   7    -0.351619771813E+03   -0.70515E-06   -0.12435E-07   710   0.853E-04
  64 F= -.35293388E+03 E0= -.35293388E+03  d E =-.204761E-02
 curvature:  -2.37 expect dE=-0.583E-02 dE for cont linesearch -0.632E-03
 ZBRENT: increasing intervall
 opt :   0.8641  next Energy=  -352.935021 (dE=-0.319E-02)
 bond charge predicted
       N       E                     dE             d eps       ncg     rms          rms(c)
RMM:   1    -0.351623039557E+03   -0.32684E-02   -0.21608E+00  1340   0.419E+00    0.192E-01
RMM:   2    -0.351620466801E+03    0.25728E-02   -0.15288E-02  1340   0.286E-01    0.309E-02
RMM:   3    -0.351620731659E+03   -0.26486E-03   -0.17834E-03  1483   0.622E-02    0.726E-03
RMM:   4    -0.351620730331E+03    0.13281E-05   -0.31409E-05  1419   0.108E-02    0.395E-03
RMM:   5    -0.351620735323E+03   -0.49927E-05   -0.39499E-06   920   0.308E-03    0.402E-03
RMM:   6    -0.351620736582E+03   -0.12586E-05   -0.91843E-07   860   0.193E-03    0.400E-03
RMM:   7    -0.351620736250E+03    0.33208E-06   -0.27888E-07   860   0.116E-03
  65 F= -.35293501E+03 E0= -.35293501E+03  d E =-.317494E-02
 curvature:  -4.27 expect dE=-0.177E-01 dE for cont linesearch -0.455E-05
 trial: gam= 0.81406 g(F)=  0.414E-02 g(S)=  0.000E+00 ort =-0.278E-03 (trialstep = 0.242E+00)
 search vector abs. value=  0.518E-01
 bond charge predicted
       N       E                     dE             d eps       ncg     rms          rms(c)
RMM:   1    -0.351621876388E+03   -0.11398E-02   -0.34820E-01  1340   0.169E+00    0.847E-02
RMM:   2    -0.351621220978E+03    0.65541E-03   -0.30345E-03  1341   0.122E-01    0.286E-02
RMM:   3    -0.351621268259E+03   -0.47281E-04   -0.39105E-04  1519   0.308E-02    0.186E-02
RMM:   4    -0.351621413304E+03   -0.14504E-03   -0.10653E-05  1220   0.718E-03    0.163E-02
RMM:   5    -0.351621457257E+03   -0.43953E-04   -0.18217E-05  1325   0.785E-03    0.102E-02
RMM:   6    -0.351621477277E+03   -0.20020E-04   -0.10491E-05  1328   0.684E-03    0.574E-03
RMM:   7    -0.351621485151E+03   -0.78742E-05   -0.55266E-07   860   0.183E-03    0.465E-03
RMM:   8    -0.351621492856E+03   -0.77051E-05   -0.42087E-06  1081   0.385E-03    0.444E-03
RMM:   9    -0.351621489244E+03    0.36117E-05   -0.27004E-07   860   0.145E-03    0.401E-03
RMM:  10    -0.351621489419E+03   -0.17484E-06   -0.16631E-06   860   0.273E-03
  66 F= -.35293585E+03 E0= -.35293585E+03  d E =-.845237E-03
 ZBRENT: can't locate minimum, use default step
 trial-energy change:   -0.000845  1 .order   -0.000858   -0.000947   -0.000769
 step:   0.9678(harm=  1.2880)  dis= 0.00621  next Energy=  -352.937529 (dE=-0.252E-02)
 bond charge predicted
       N       E                     dE             d eps       ncg     rms          rms(c)
RMM:   1    -0.351626219411E+03   -0.47302E-02   -0.31361E+00  1340   0.506E+00    0.252E-01
RMM:   2    -0.351622222584E+03    0.39968E-02   -0.23721E-02  1340   0.349E-01    0.449E-02
RMM:   3    -0.351622636402E+03   -0.41382E-03   -0.30429E-03  1503   0.821E-02    0.141E-02
RMM:   4    -0.351622624081E+03    0.12321E-04   -0.55136E-05  1361   0.150E-02    0.475E-03
RMM:   5    -0.351622624108E+03   -0.27376E-07   -0.64115E-06  1065   0.426E-03
  67 F= -.35293727E+03 E0= -.35293727E+03  d E =-.226341E-02
 curvature:  -7.73 expect dE=-0.438E-01 dE for cont linesearch -0.923E-04
 trial: gam= 1.00431 g(F)=  0.567E-02 g(S)=  0.000E+00 ort = 0.787E-03 (trialstep = 0.337E+00)
 search vector abs. value=  0.595E-01
 bond charge predicted
       N       E                     dE             d eps       ncg     rms          rms(c)
RMM:   1    -0.351625072250E+03   -0.24482E-02   -0.73482E-01  1340   0.246E+00    0.121E-01
RMM:   2    -0.351623934403E+03    0.11378E-02   -0.94056E-03  1341   0.208E-01    0.117E-01
RMM:   3    -0.351624213150E+03   -0.27875E-03   -0.15907E-03  1341   0.707E-02    0.363E-02
RMM:   4    -0.351624331791E+03   -0.11864E-03   -0.85998E-04  1401   0.524E-02    0.432E-02
RMM:   5    -0.351624267090E+03    0.64701E-04   -0.22969E-04  1353   0.293E-02    0.160E-02
RMM:   6    -0.351624299264E+03   -0.32175E-04   -0.11387E-05  1247   0.678E-03    0.120E-02
RMM:   7    -0.351624334710E+03   -0.35445E-04   -0.52000E-06  1162   0.465E-03    0.103E-02
RMM:   8    -0.351624355029E+03   -0.20319E-04   -0.76044E-07   860   0.246E-03    0.825E-03
RMM:   9    -0.351624355169E+03   -0.14058E-06   -0.53618E-06  1153   0.457E-03
  68 F= -.35293902E+03 E0= -.35293902E+03  d E =-.174849E-02
 trial-energy change:   -0.001748  1 .order   -0.001759   -0.002178   -0.001340
 step:   1.0366(harm=  0.8759)  dis= 0.00751  next Energy=  -352.940318 (dE=-0.305E-02)
 bond charge predicted
       N       E                     dE             d eps       ncg     rms          rms(c)
RMM:   1    -0.351628537014E+03   -0.41820E-02   -0.31676E+00  1340   0.511E+00    0.249E-01
RMM:   2    -0.351624964044E+03    0.35730E-02   -0.23647E-02  1340   0.351E-01    0.358E-02
RMM:   3    -0.351625411555E+03   -0.44751E-03   -0.29941E-03  1499   0.790E-02    0.243E-02
RMM:   4    -0.351625414942E+03   -0.33865E-05   -0.10651E-04  1340   0.207E-02    0.618E-03
RMM:   5    -0.351625413160E+03    0.17824E-05   -0.13184E-05  1248   0.697E-03    0.445E-03
RMM:   6    -0.351625418682E+03   -0.55224E-05   -0.85024E-07   860   0.215E-03    0.407E-03
RMM:   7    -0.351625418003E+03    0.67942E-06   -0.30837E-07   860   0.119E-03
  69 F= -.35294013E+03 E0= -.35294013E+03  d E =-.285371E-02
 curvature:  -3.68 expect dE=-0.269E-01 dE for cont linesearch -0.400E-04
 trial: gam= 1.74016 g(F)=  0.731E-02 g(S)=  0.000E+00 ort =-0.805E-03 (trialstep = 0.154E+00)
 search vector abs. value=  0.185E+00
 bond charge predicted
       N       E                     dE             d eps       ncg     rms          rms(c)
RMM:   1    -0.351626375101E+03   -0.95642E-03   -0.40913E-01  1340   0.185E+00    0.938E-02
RMM:   2    -0.351625881634E+03    0.49347E-03   -0.32034E-03  1340   0.127E-01    0.125E-02
RMM:   3    -0.351625965618E+03   -0.83984E-04   -0.42906E-04  1459   0.311E-02    0.154E-02
RMM:   4    -0.351625948656E+03    0.16963E-04   -0.14560E-05  1173   0.715E-03    0.112E-02
RMM:   5    -0.351625957281E+03   -0.86255E-05   -0.30460E-05  1340   0.103E-02    0.475E-03
RMM:   6    -0.351625960822E+03   -0.35404E-05   -0.10019E-06   860   0.270E-03    0.401E-03
RMM:   7    -0.351625963373E+03   -0.25517E-05   -0.11604E-06   860   0.240E-03    0.370E-03
RMM:   8    -0.351625963339E+03    0.34908E-07   -0.18382E-07   838   0.102E-03
  70 F= -.35294075E+03 E0= -.35294075E+03  d E =-.627856E-03
 trial-energy change:   -0.000628  1 .order   -0.000635   -0.000908   -0.000362
 step:   0.2720(harm=  0.2553)  dis= 0.00359  next Energy=  -352.940890 (dE=-0.764E-03)
 bond charge predicted
       N       E                     dE             d eps       ncg     rms          rms(c)
RMM:   1    -0.351626253860E+03   -0.29049E-03   -0.24278E-01  1340   0.143E+00    0.722E-02
RMM:   2    -0.351625988555E+03    0.26530E-03   -0.18593E-03  1340   0.970E-02    0.118E-02
RMM:   3    -0.351626012282E+03   -0.23727E-04   -0.24230E-04  1507   0.224E-02    0.410E-03
RMM:   4    -0.351626008338E+03    0.39444E-05   -0.29671E-06   973   0.352E-03    0.371E-03
RMM:   5    -0.351626006629E+03    0.17085E-05   -0.74151E-07   862   0.174E-03    0.390E-03
RMM:   6    -0.351626005699E+03    0.93014E-06   -0.17227E-07   857   0.824E-04
  71 F= -.35294086E+03 E0= -.35294086E+03  d E =-.734468E-03
 curvature:  -3.88 expect dE=-0.483E-02 dE for cont linesearch -0.246E-05
 trial: gam=-0.15353 g(F)=  0.124E-02 g(S)=  0.000E+00 ort =-0.342E-03 (trialstep = 0.177E+00)
 search vector abs. value=  0.570E-02
 bond charge predicted
       N       E                     dE             d eps       ncg     rms          rms(c)
RMM:   1    -0.351626188387E+03   -0.18176E-03   -0.20171E-02  1340   0.407E-01    0.246E-02
RMM:   2    -0.351626149832E+03    0.38555E-04   -0.16286E-04  1340   0.298E-02    0.528E-03
RMM:   3    -0.351626158553E+03   -0.87205E-05   -0.14918E-05  1284   0.599E-03    0.392E-03
RMM:   4    -0.351626161462E+03   -0.29090E-05   -0.50660E-07   860   0.170E-03    0.371E-03
RMM:   5    -0.351626165816E+03   -0.43546E-05   -0.32988E-07   860   0.131E-03    0.374E-03
RMM:   6    -0.351626168414E+03   -0.25973E-05   -0.50086E-07   860   0.153E-03    0.387E-03
RMM:   7    -0.351626169237E+03   -0.82381E-06   -0.14244E-07   800   0.901E-04
  72 F= -.35294104E+03 E0= -.35294104E+03  d E =-.179462E-03
 trial-energy change:   -0.000179  1 .order   -0.000173   -0.000230   -0.000117
 step:   0.2953(harm=  0.3594)  dis= 0.00055  next Energy=  -352.941081 (dE=-0.220E-03)
 bond charge predicted
       N       E                     dE             d eps       ncg     rms          rms(c)
RMM:   1    -0.351626223499E+03   -0.55085E-04   -0.89190E-03  1340   0.271E-01    0.169E-02
RMM:   2    -0.351626210920E+03    0.12579E-04   -0.66257E-05  1340   0.193E-02    0.433E-03
RMM:   3    -0.351626213296E+03   -0.23765E-05   -0.84025E-06  1225   0.466E-03    0.377E-03
RMM:   4    -0.351626214121E+03   -0.82523E-06   -0.24571E-07   860   0.118E-03
  73 F= -.35294110E+03 E0= -.35294110E+03  d E =-.234970E-03
 curvature:  -0.69 expect dE=-0.136E-03 dE for cont linesearch -0.618E-05
 trial: gam= 0.03705 g(F)=  0.196E-03 g(S)=  0.000E+00 ort = 0.226E-03 (trialstep = 0.201E+00)
 search vector abs. value=  0.221E-03
 bond charge predicted
       N       E                     dE             d eps       ncg     rms          rms(c)
RMM:   1    -0.351626258538E+03   -0.45242E-04   -0.84577E-04  1340   0.841E-02    0.540E-03
RMM:   2    -0.351626256396E+03    0.21425E-05   -0.97207E-06  1220   0.660E-03    0.467E-03
RMM:   3    -0.351626256184E+03    0.21168E-06   -0.63081E-07   860   0.198E-03    0.431E-03
RMM:   4    -0.351626256941E+03   -0.75724E-06   -0.16927E-06   860   0.271E-03
  74 F= -.35294114E+03 E0= -.35294114E+03  d E =-.401782E-04
 ZBRENT: can't locate minimum, use default step
 trial-energy change:   -0.000040  1 .order   -0.000039   -0.000041   -0.000036
 step:   0.8037(harm=  1.6102)  dis= 0.00036  next Energy=  -352.941261 (dE=-0.165E-03)
 bond charge predicted
       N       E                     dE             d eps       ncg     rms          rms(c)
RMM:   1    -0.351626364870E+03   -0.10869E-03   -0.76276E-03  1340   0.252E-01    0.127E-02
RMM:   2    -0.351626348271E+03    0.16599E-04   -0.44544E-05  1340   0.165E-02    0.412E-03
RMM:   3    -0.351626351509E+03   -0.32388E-05   -0.40842E-06   958   0.347E-03    0.371E-03
RMM:   4    -0.351626353374E+03   -0.18646E-05   -0.59181E-07   860   0.159E-03    0.392E-03
RMM:   5    -0.351626352573E+03    0.80094E-06   -0.74988E-08   585   0.686E-04
  75 F= -.35294122E+03 E0= -.35294122E+03  d E =-.127895E-03
 curvature:  -0.58 expect dE=-0.885E-04 dE for cont linesearch -0.250E-04
 ZBRENT: increasing intervall
 opt :   2.0091  next Energy=  -352.941242 (dE=-0.146E-03)
 bond charge predicted
       N       E                     dE             d eps       ncg     rms          rms(c)
RMM:   1    -0.351626444345E+03   -0.90971E-04   -0.30510E-02  1340   0.505E-01    0.244E-02
RMM:   2    -0.351626391116E+03    0.53229E-04   -0.17398E-04  1340   0.328E-02    0.495E-03
RMM:   3    -0.351626400258E+03   -0.91421E-05   -0.15874E-05  1159   0.659E-03    0.370E-03
RMM:   4    -0.351626401055E+03   -0.79764E-06   -0.53555E-07   860   0.167E-03
  76 F= -.35294126E+03 E0= -.35294126E+03  d E =-.160579E-03
 curvature:  -0.43 expect dE=-0.313E-03 dE for cont linesearch -0.804E-05
 trial: gam= 0.00000 g(F)=  0.722E-03 g(S)=  0.000E+00 ort =-0.640E-04 (trialstep = 0.172E+00)
 search vector abs. value=  0.722E-03
 bond charge predicted
       N       E                     dE             d eps       ncg     rms          rms(c)
RMM:   1    -0.351626467451E+03   -0.67193E-04   -0.36612E-03  1340   0.162E-01    0.141E-02
RMM:   2    -0.351626459335E+03    0.81159E-05   -0.21485E-05  1335   0.116E-02    0.554E-03
RMM:   3    -0.351626466657E+03   -0.73222E-05   -0.92815E-06  1280   0.579E-03    0.514E-03
RMM:   4    -0.351626463567E+03    0.30897E-05   -0.32222E-07   860   0.147E-03    0.438E-03
RMM:   5    -0.351626461593E+03    0.19745E-05   -0.40196E-07   860   0.142E-03    0.390E-03
RMM:   6    -0.351626460816E+03    0.77694E-06   -0.65856E-08   722   0.693E-04
  77 F= -.35294133E+03 E0= -.35294133E+03  d E =-.780265E-04
 trial-energy change:   -0.000078  1 .order   -0.000078   -0.000124   -0.000032
 step:   0.2320(harm=  0.2320)  dis= 0.00024  next Energy=  -352.941340 (dE=-0.837E-04)
 bond charge predicted
       N       E                     dE             d eps       ncg     rms          rms(c)
RMM:   1    -0.351626460233E+03    0.13594E-05   -0.44245E-04  1340   0.564E-02    0.587E-03
RMM:   2    -0.351626459753E+03    0.48006E-06   -0.25222E-06   968   0.409E-03    0.368E-03
RMM:   3    -0.351626459371E+03    0.38259E-06   -0.23846E-07   844   0.119E-03    0.364E-03
RMM:   4    -0.351626458810E+03    0.56025E-06   -0.36052E-08   557   0.554E-04
  78 F= -.35294134E+03 E0= -.35294134E+03  d E =-.823717E-04
 curvature:  -0.12 expect dE=-0.893E-05 dE for cont linesearch -0.242E-08
 trial: gam= 0.10131 g(F)=  0.770E-04 g(S)=  0.000E+00 ort = 0.388E-05 (trialstep = 0.184E+00)
 search vector abs. value=  0.852E-04
 bond charge predicted
       N       E                     dE             d eps       ncg     rms          rms(c)
RMM:   1    -0.351626476800E+03   -0.17430E-04   -0.26205E-04  1340   0.466E-02    0.481E-03
RMM:   2    -0.351626474421E+03    0.23790E-05   -0.18690E-06   860   0.366E-03    0.368E-03
RMM:   3    -0.351626474747E+03   -0.32547E-06   -0.32169E-07   860   0.149E-03    0.371E-03
RMM:   4    -0.351626474466E+03    0.28061E-06   -0.63141E-08   680   0.663E-04
  79 F= -.35294135E+03 E0= -.35294135E+03  d E =-.106371E-04
 ZBRENT: can't locate minimum, use default step
 trial-energy change:   -0.000011  1 .order   -0.000013   -0.000014   -0.000012
 step:   0.7365(harm=  0.9666)  dis= 0.00019  next Energy=  -352.941376 (dE=-0.374E-04)
 bond charge predicted
       N       E                     dE             d eps       ncg     rms          rms(c)
RMM:   1    -0.351626518142E+03   -0.43396E-04   -0.23561E-03  1340   0.140E-01    0.980E-03
RMM:   2    -0.351626508090E+03    0.10052E-04   -0.15540E-05  1340   0.101E-02    0.375E-03
RMM:   3    -0.351626507795E+03    0.29515E-06   -0.92947E-07   860   0.217E-03    0.370E-03
RMM:   4    -0.351626507269E+03    0.52621E-06   -0.15056E-07   837   0.826E-04
  80 F= -.35294137E+03 E0= -.35294137E+03  d E =-.284099E-04
 curvature:  -0.49 expect dE=-0.141E-04 dE for cont linesearch -0.206E-05
 trial: gam= 0.14057 g(F)=  0.291E-04 g(S)=  0.000E+00 ort = 0.190E-04 (trialstep = 0.295E+00)
 search vector abs. value=  0.361E-04
 bond charge predicted
       N       E                     dE             d eps       ncg     rms          rms(c)
RMM:   1    -0.351626518072E+03   -0.10277E-04   -0.27304E-04  1340   0.481E-02    0.429E-03
RMM:   2    -0.351626518807E+03   -0.73495E-06   -0.22674E-06   922   0.361E-03    0.381E-03
RMM:   3    -0.351626521000E+03   -0.21927E-05   -0.25060E-07   860   0.120E-03    0.377E-03
RMM:   4    -0.351626521459E+03   -0.45926E-06   -0.26839E-07   860   0.112E-03
  81 F= -.35294138E+03 E0= -.35294138E+03  d E =-.129594E-04
 ZBRENT: can't locate minimum, use default step
 trial-energy change:   -0.000013  1 .order   -0.000009   -0.000009   -0.000008
 step:   1.1784(harm=  2.6000)  dis= 0.00020  next Energy=  -352.941408 (dE=-0.413E-04)
 bond charge predicted
       N       E                     dE             d eps       ncg     rms          rms(c)
RMM:   1    -0.351626550129E+03   -0.29129E-04   -0.24692E-03  1340   0.144E-01    0.751E-03
RMM:   2    -0.351626545591E+03    0.45384E-05   -0.18144E-05  1340   0.984E-03    0.370E-03
RMM:   3    -0.351626545897E+03   -0.30645E-06   -0.14496E-06   897   0.225E-03    0.363E-03
RMM:   4    -0.351626545885E+03    0.12482E-07   -0.34410E-07   721   0.104E-03
  82 F= -.35294140E+03 E0= -.35294140E+03  d E =-.337014E-04
 curvature:  -0.92 expect dE=-0.171E-04 dE for cont linesearch -0.850E-05
 trial: gam= 0.13070 g(F)=  0.187E-04 g(S)=  0.000E+00 ort = 0.183E-04 (trialstep = 0.471E+00)
 search vector abs. value=  0.241E-04
 bond charge predicted
       N       E                     dE             d eps       ncg     rms          rms(c)
RMM:   1    -0.351626555061E+03   -0.91636E-05   -0.19185E-04  1340   0.415E-02    0.483E-03
RMM:   2    -0.351626543099E+03    0.11961E-04   -0.16711E-06   860   0.331E-03    0.432E-03
RMM:   3    -0.351626544528E+03   -0.14289E-05   -0.17847E-06   914   0.274E-03    0.460E-03
RMM:   4    -0.351626549201E+03   -0.46728E-05   -0.58489E-07   860   0.195E-03    0.408E-03
RMM:   5    -0.351626551560E+03   -0.23593E-05   -0.97367E-08   860   0.803E-04    0.389E-03
RMM:   6    -0.351626553706E+03   -0.21459E-05   -0.30874E-07   843   0.117E-03    0.362E-03
RMM:   7    -0.351626556304E+03   -0.25980E-05   -0.31071E-07   841   0.118E-03    0.364E-03
RMM:   8    -0.351626556985E+03   -0.68049E-06   -0.39311E-08   509   0.514E-04
  83 F= -.35294141E+03 E0= -.35294141E+03  d E =-.115083E-04
 trial-energy change:   -0.000012  1 .order   -0.000009   -0.000010   -0.000007
 step:   1.6479(harm=  1.6479)  dis= 0.00021  next Energy=  -352.941418 (dE=-0.173E-04)
 bond charge predicted
       N       E                     dE             d eps       ncg     rms          rms(c)
RMM:   1    -0.351626566538E+03   -0.10233E-04   -0.11943E-03  1340   0.103E-01    0.103E-02
RMM:   2    -0.351626565007E+03    0.15311E-05   -0.10543E-05  1340   0.781E-03    0.448E-03
RMM:   3    -0.351626565022E+03   -0.15832E-07   -0.13170E-06   860   0.237E-03    0.380E-03
RMM:   4    -0.351626565497E+03   -0.47451E-06   -0.21317E-07   780   0.917E-04
  84 F= -.35294142E+03 E0= -.35294142E+03  d E =-.210489E-04
 curvature:  -0.94 expect dE=-0.969E-04 dE for cont linesearch -0.482E-07
 trial: gam= 5.73084 g(F)=  0.103E-03 g(S)=  0.000E+00 ort =-0.111E-05 (trialstep = 0.193E-01)
 search vector abs. value=  0.880E-03
 bond charge predicted
       N       E                     dE             d eps       ncg     rms          rms(c)
RMM:   1    -0.351626567230E+03   -0.22077E-05   -0.10489E-05  1280   0.964E-03    0.372E-03
RMM:   2    -0.351626567037E+03    0.19356E-06   -0.11692E-07   859   0.943E-04    0.366E-03
RMM:   3    -0.351626567759E+03   -0.72250E-06   -0.17011E-09   414   0.393E-04    0.366E-03
RMM:   4    -0.351626567475E+03    0.28408E-06   -0.22961E-08   482   0.483E-04
  85 F= -.35294142E+03 E0= -.35294142E+03  d E =-.178355E-05
 ZBRENT: can't locate minimum, use default step
 trial-energy change:   -0.000002  1 .order   -0.000002   -0.000002   -0.000002
 step:   0.0772(harm=  0.8577)  dis= 0.00007  next Energy=  -352.941463 (dE=-0.414E-04)
 bond charge predicted
       N       E                     dE             d eps       ncg     rms          rms(c)
RMM:   1    -0.351626573313E+03   -0.55543E-05   -0.90865E-05  1340   0.288E-02    0.408E-03
RMM:   2    -0.351626572766E+03    0.54772E-06   -0.60748E-07   860   0.210E-03    0.363E-03
RMM:   3    -0.351626572801E+03   -0.35045E-07   -0.11749E-07   860   0.874E-04    0.361E-03
RMM:   4    -0.351626572845E+03   -0.44653E-07   -0.38686E-09   399   0.412E-04
  86 F= -.35294143E+03 E0= -.35294143E+03  d E =-.657154E-05
 curvature:  -0.52 expect dE=-0.507E-04 dE for cont linesearch -0.473E-05
 trial: gam=-0.02491 g(F)=  0.972E-04 g(S)=  0.000E+00 ort = 0.894E-04 (trialstep = 0.309E-01)
 search vector abs. value=  0.933E-04
 reached required accuracy - stopping structural energy minimisation
 writing wavefunctions
