    #         X           Y           Z       CHARGE      MIN DIST   ATOMIC VOL
 --------------------------------------------------------------------------------
    1    2.021786    0.802359   14.291044    0.282400     0.039532     1.741815
    2    2.021786    0.802359   22.351053    0.259869     0.035144     1.574913
    3    2.021786    0.802359   30.411014    0.277350     0.032615     3.797015
    4    3.358395    4.212193   14.291044    0.268071     0.039532     2.006372
    5    3.358395    4.212193   22.351053    0.258809     0.035144     1.910492
    6    3.358395    4.212193   30.411014    0.278754     0.032615     7.187428
    7    0.314303    2.152670   10.277373    0.289332     0.054317     1.859001
    8    0.314303    2.152670   18.337383    0.282864     0.047487     1.799520
    9    0.314303    2.152670   26.397344    0.271275     0.041399     1.771112
   10   -1.967309    5.015761   10.277373    0.296838     0.054317     1.871430
   11   -1.967309    5.015761   18.337383    0.291838     0.071290     1.835919
   12   -1.967309    5.015761   26.397344    0.289614     0.076039     1.846572
   13    1.707116    1.348530   10.277373    0.288860     0.054317     1.788867
   14    1.707116    1.348530   18.337383    0.282697     0.047487     1.634394
   15    1.707116    1.348530   26.397344    0.270831     0.041399     1.595332
   16    5.327431    0.804141   10.277373    0.302573     0.063520     1.884747
   17    5.327431    0.804141   18.337383    0.296072     0.047487     1.833256
   18    5.327431    0.804141   26.397344    0.289252     0.076039     1.820827
   19   -0.316030    2.152098   14.291044    0.282735     0.039532     1.950442
   20   -0.316030    2.152098   22.351053    0.259287     0.035144     1.790643
   21   -0.316030    2.152098   30.411014    0.277990     0.032615     6.376889
   22    1.968669    5.014552   14.291044    0.267236     0.039532     1.652150
   23    1.968669    5.014552   22.351053    0.258017     0.035144     1.551831
   24    1.968669    5.014552   30.411014    0.276941     0.032615     3.615909
   25    2.593203    0.000000    8.660451    0.360671     0.041536   151.986231
   26    2.593203    0.000000   16.720461    0.314855     0.042223     2.994466
   27    2.593203    0.000000   24.780422    0.325640     0.044708     3.043293
   28    3.507430    0.000000   10.020646    0.330366     0.040533     2.858636
   29    3.507430    0.000000   18.080655    0.331210     0.044821     1.963759
   30    3.507430    0.000000   26.140665    0.331546     0.050317     2.033005
   31    2.377823    4.118511    8.660451    0.365304     0.088911   144.839641
   32    2.377823    4.118511   16.720461    0.309392     0.042223     2.983813
   33    2.377823    4.118511   24.780422    0.319761     0.044708     3.059273
   34    1.920710    3.326767   10.020646    0.343783     0.125902     1.806623
   35    1.920710    3.326767   18.080655    0.356565     0.141450     1.843021
   36    1.920710    3.326767   26.140665    0.354515     0.140506     1.936238
   37   13.401098    2.245780    8.660451    0.358932     0.041536   150.098821
   38   13.401098    2.245780   16.720461    0.312293     0.042223     2.993578
   39   13.401098    2.245780   24.780422    0.322638     0.044708     3.039742
   40   12.943985    3.037523   10.020646    0.328171     0.040533     1.770224
   41   12.943985    3.037523   18.080655    0.329760     0.044821     1.720508
   42   12.943985    3.037523   26.140665    0.330096     0.050317     1.794194
   43    4.747533    0.000000   12.666889    0.340383     0.056413     3.077029
   44    4.747533    0.000000   20.726899    0.348987     0.061121     3.083243
   45    4.747533    0.000000   28.786909    0.367419     0.066678     3.243043
   46    3.839789    0.000000   14.035152    0.333120     0.053018     2.058751
   47    3.839789    0.000000   22.095162    0.333902     0.059412     2.034781
   48    3.839789    0.000000   30.155172    0.334545     0.059040     2.789390
   49    1.300658    2.252806   12.666889    0.325679     0.056413     3.025538
   50    1.300658    2.252806   20.726899    0.338230     0.061121     3.113428
   51    1.300658    2.252806   28.786909    0.355348     0.066678     3.231502
   52    1.754531    3.038936   14.035152    0.356695     0.140541     1.838582
   53    1.754531    3.038936   22.095162    0.358764     0.136850     1.914931
   54    1.754531    3.038936   30.155172    0.353299     0.133644     2.969608
   55   12.323933    4.111484   12.666889    0.336020     0.056413     3.068151
   56   12.323933    4.111484   20.726899    0.343354     0.061121     3.070815
   57   12.323933    4.111484   28.786909    0.363034     0.066678     3.242155
   58   -1.919894    3.325355   14.035152    0.331328     0.053018     1.687661
   59   -1.919894    3.325355   22.095162    0.332216     0.059412     1.723172
   60   -1.919894    3.325355   30.155172    0.332964     0.059040     2.720143
   61    9.370636    0.802359   14.291044    0.282401     0.039532     1.740927
   62    9.370636    0.802359   22.351053    0.259871     0.035144     1.575801
   63    9.370636    0.802359   30.411014    0.277344     0.032615     3.778371
   64   10.707245    4.212193   14.291044    0.268065     0.039532     2.008148
   65   10.707245    4.212193   22.351053    0.258804     0.035144     1.907829
   66   10.707245    4.212193   30.411014    0.278757     0.032615     7.424464
   67    5.643094    1.349739   14.291044    0.279481     0.074537     1.661915
   68    5.643094    1.349739   22.351053    0.286009     0.072306     1.697426
   69    5.643094    1.349739   30.411014    0.295856     0.071111     6.296990
   70    7.663153    2.152670   10.277373    0.289342     0.054317     1.861665
   71    7.663153    2.152670   18.337383    0.282865     0.047487     1.799520
   72    7.663153    2.152670   26.397344    0.271282     0.041399     1.772887
   73    5.381541    5.015761   10.277373    0.295227     0.054317     1.866991
   74    5.381541    5.015761   18.337383    0.292030     0.071290     1.835031
   75    5.381541    5.015761   26.397344    0.289159     0.076039     1.843909
   76    3.988728    4.211620   10.277373    0.213692     0.090016     1.529637
   77    3.988728    4.211620   18.337383    0.134685     0.047487     0.972114
   78    3.988728    4.211620   26.397344    0.283108     0.041399     1.977075
   79    9.055966    1.348530   10.277373    0.289105     0.054317     1.791530
   80    9.055966    1.348530   18.337383    0.282692     0.047487     1.632619
   81    9.055966    1.348530   26.397344    0.270829     0.041399     1.594444
   82   12.676281    0.804141   10.277373    0.302577     0.063520     1.885635
   83   12.676281    0.804141   18.337383    0.293533     0.047487     1.825266
   84   12.676281    0.804141   26.397344    0.289252     0.076039     1.820827
   85    7.032820    2.152098   14.291044    0.282733     0.039532     1.948667
   86    7.032820    2.152098   22.351053    0.259290     0.035144     1.790643
   87    7.032820    2.152098   30.411014    0.277994     0.032615     7.382739
   88    9.317519    5.014552   14.291044    0.267229     0.039532     1.650374
   89    9.317519    5.014552   22.351053    0.258021     0.035144     1.552719
   90    9.317519    5.014552   30.411014    0.277334     0.032615     3.612357
   91    9.942053    0.000000    8.660451    0.360500     0.041536   151.984456
   92    9.942053    0.000000   16.720461    0.316228     0.042223     3.003344
   93    9.942053    0.000000   24.780422    0.325567     0.044708     3.042406
   94   10.856280    0.000000   10.020646    0.330365     0.040533     2.870177
   95   10.856280    0.000000   18.080655    0.331210     0.044821     1.963759
   96   10.856280    0.000000   26.140665    0.331546     0.050317     2.033005
   97    9.726673    4.118511    8.660451    0.365304     0.088911   144.858284
   98    9.726673    4.118511   16.720461    0.309392     0.042223     2.983813
   99    9.726673    4.118511   24.780422    0.319761     0.044708     3.059273
  100    9.269560    3.326767   10.020646    0.343783     0.125902     1.806623
  101    9.269560    3.326767   18.080655    0.356565     0.141450     1.843021
  102    9.269560    3.326767   26.140665    0.354515     0.140506     1.936238
  103    6.052248    2.245780    8.660451    0.359472     0.041536   150.075739
  104    6.052248    2.245780   16.720461    0.314666     0.042223     2.998017
  105    6.052248    2.245780   24.780422    0.322922     0.044708     3.041518
  106    5.595135    3.037523   10.020646    0.328172     0.040533     1.769336
  107    5.595135    3.037523   18.080655    0.329760     0.044821     1.720508
  108    5.595135    3.037523   26.140665    0.330096     0.050317     1.794194
  109   12.096383    0.000000   12.666889    0.340362     0.056413     3.076141
  110   12.096383    0.000000   20.726899    0.349059     0.061121     3.085907
  111   12.096383    0.000000   28.786909    0.367058     0.066678     3.240380
  112   11.188639    0.000000   14.035152    0.333120     0.053018     2.058751
  113   11.188639    0.000000   22.095162    0.333902     0.059412     2.034781
  114   11.188639    0.000000   30.155172    0.334546     0.059040     2.790278
  115    8.649508    2.252806   12.666889    0.325673     0.056413     3.024650
  116    8.649508    2.252806   20.726899    0.339531     0.061121     3.115203
  117    8.649508    2.252806   28.786909    0.352263     0.066678     3.228839
  118    9.103381    3.038936   14.035152    0.356695     0.140541     1.838582
  119    9.103381    3.038936   22.095162    0.358760     0.136850     1.914043
  120    9.103381    3.038936   30.155172    0.353299     0.133644     2.963394
  121    4.975083    4.111484   12.666889    0.334943     0.056413     3.056610
  122    4.975083    4.111484   20.726899    0.345256     0.061121     3.081468
  123    4.975083    4.111484   28.786909    0.361974     0.066678     3.234165
  124    5.428956    3.325355   14.035152    0.331328     0.053018     1.687661
  125    5.428956    3.325355   22.095162    0.332216     0.059412     1.723172
  126    5.428956    3.325355   30.155172    0.332964     0.059040     2.721919
  127   -1.652639    7.166649   14.291044    0.282400     0.039532     1.740927
  128   -1.652639    7.166649   22.351053    0.259872     0.035144     1.576689
  129   -1.652639    7.166649   30.411014    0.277344     0.032615     3.778371
  130   -0.316030   10.576483   14.291044    0.268077     0.039532     2.010811
  131   -0.316030   10.576483   22.351053    0.258804     0.035144     1.907829
  132   -0.316030   10.576483   30.411014    0.278754     0.032615     7.190092
  133    1.653006    5.560150   10.277373    0.215588     0.090016     1.528749
  134    1.653006    5.560150   18.337383    0.108817     0.047487     0.798110
  135    1.653006    5.560150   26.397344    0.282822     0.041399     1.768448
  136   -3.360122    8.516961   10.277373    0.290124     0.054317     4.611105
  137   -3.360122    8.516961   18.337383    0.283004     0.047487     1.872318
  138   -3.360122    8.516961   26.397344    0.271413     0.041399     1.837695
  139   -5.641734   11.380051   10.277373    0.298193     0.063520     1.871430
  140   -5.641734   11.380051   18.337383    0.291838     0.071290     1.835919
  141   -5.641734   11.380051   26.397344    0.290312     0.076039     1.847460
  142   -1.967309    7.712820   10.277373    0.288860     0.054317     1.788867
  143   -1.967309    7.712820   18.337383    0.282692     0.047487     1.632619
  144   -1.967309    7.712820   26.397344    0.270824     0.041399     1.592669
  145    1.653006    7.168431   10.277373    0.302575     0.063520     1.885635
  146    1.653006    7.168431   18.337383    0.293041     0.047487     1.829705
  147    1.653006    7.168431   26.397344    0.289255     0.076039     1.822603
  148   -3.990455    8.516388   14.291044    0.282733     0.039532     1.948667
  149   -3.990455    8.516388   22.351053    0.259285     0.035144     1.790643
  150   -3.990455    8.516388   30.411014    0.277989     0.032615     7.138601
  151   -1.705756   11.378842   14.291044    0.267229     0.039532     1.650374
  152   -1.705756   11.378842   22.351053    0.258013     0.035144     1.550056
  153   -1.705756   11.378842   30.411014    0.277173     0.032615     3.164919
  154   -1.652639    5.561932   14.291044    0.283232     0.074537     1.672569
  155   -1.652639    5.561932   22.351053    0.289083     0.072306     1.707192
  156   -1.652639    5.561932   30.411014    0.297423     0.071111     5.936553
  157   -1.081222    6.364291    8.660451    0.360867     0.041536   151.985344
  158   -1.081222    6.364291   16.720461    0.315077     0.042223     2.997129
  159   -1.081222    6.364291   24.780422    0.325784     0.044708     3.046845
  160   -0.166995    6.364291   10.020646    0.330373     0.040533     2.872841
  161   -0.166995    6.364291   18.080655    0.331210     0.044821     1.963759
  162   -0.166995    6.364291   26.140665    0.331546     0.050317     2.033005
  163   -1.296602   10.482801    8.660451    0.365302     0.088911   144.628350
  164   -1.296602   10.482801   16.720461    0.309392     0.042223     2.983813
  165   -1.296602   10.482801   24.780422    0.319761     0.044708     3.059273
  166   -1.753715    9.691058   10.020646    0.343783     0.125902     1.806623
  167   -1.753715    9.691058   18.080655    0.356570     0.141450     1.843909
  168   -1.753715    9.691058   26.140665    0.354515     0.140506     1.936238
  169    9.726673    8.610070    8.660451    0.359186     0.041536   149.842254
  170    9.726673    8.610070   16.720461    0.313557     0.042223     2.992690
  171    9.726673    8.610070   24.780422    0.321087     0.044708     3.035304
  172    9.269560    9.401814   10.020646    0.328172     0.040533     1.771112
  173    9.269560    9.401814   18.080655    0.329760     0.044821     1.720508
  174    9.269560    9.401814   26.140665    0.330096     0.050317     1.794194
  175    1.073108    6.364291   12.666889    0.340316     0.056413     3.075253
  176    1.073108    6.364291   20.726899    0.348987     0.061121     3.083243
  177    1.073108    6.364291   28.786909    0.367191     0.066678     3.242155
  178    0.165364    6.364291   14.035152    0.333120     0.053018     2.058751
  179    0.165364    6.364291   22.095162    0.333902     0.059412     2.034781
  180    0.165364    6.364291   30.155172    0.334546     0.059040     2.790278
  181   -2.373767    8.617097   12.666889    0.328741     0.056413     3.029977
  182   -2.373767    8.617097   20.726899    0.338230     0.061121     3.113428
  183   -2.373767    8.617097   28.786909    0.352263     0.066678     3.228839
  184   -1.919894    9.403226   14.035152    0.356695     0.140541     1.838582
  185   -1.919894    9.403226   22.095162    0.358764     0.136850     1.914931
  186   -1.919894    9.403226   30.155172    0.353299     0.133644     2.966057
  187   -6.048192   10.475775   12.666889    0.335485     0.056413     3.061937
  188   -6.048192   10.475775   20.726899    0.344602     0.061121     3.077917
  189   -6.048192   10.475775   28.786909    0.361375     0.066678     3.235941
  190    9.103381    9.689645   14.035152    0.331328     0.053018     1.687661
  191    9.103381    9.689645   22.095162    0.332216     0.059412     1.723172
  192    9.103381    9.689645   30.155172    0.332965     0.059040     2.738787
  193    5.696211    7.166649   14.291044    0.282395     0.039532     1.740039
  194    5.696211    7.166649   22.351053    0.259875     0.035144     1.576689
  195    5.696211    7.166649   30.411014    0.277344     0.032615     3.775708
  196    7.032820   10.576483   14.291044    0.268063     0.039532     2.005484
  197    7.032820   10.576483   22.351053    0.258808     0.035144     1.909605
  198    7.032820   10.576483   30.411014    0.278750     0.032615     6.924647
  199    1.968669    7.714029   14.291044    0.279644     0.074537     1.662803
  200    1.968669    7.714029   22.351053    0.287525     0.072306     1.702753
  201    1.968669    7.714029   30.411014    0.296198     0.071111     5.844224
  202    9.001856    5.560150   10.277373    0.217584     0.090016     1.526086
  203    9.001856    5.560150   18.337383    0.108815     0.047487     0.797222
  204    9.001856    5.560150   26.397344    0.282858     0.041399     1.800408
  205    3.988728    8.516961   10.277373    0.290113     0.054317     4.606666
  206    3.988728    8.516961   18.337383    0.283009     0.047487     1.873206
  207    3.988728    8.516961   26.397344    0.271413     0.041399     1.837695
  208    1.707116   11.380051   10.277373    0.295235     0.054317     1.870542
  209    1.707116   11.380051   18.337383    0.291303     0.071290     1.835031
  210    1.707116   11.380051   26.397344    0.290818     0.076039     1.851011
  211    0.314303   10.575911   10.277373    0.214618     0.090016     4.351874
  212    0.314303   10.575911   18.337383    0.134828     0.047487     1.045799
  213    0.314303   10.575911   26.397344    0.283204     0.041399     2.009035
  214    5.381541    7.712820   10.277373    0.289105     0.054317     1.791530
  215    5.381541    7.712820   18.337383    0.282692     0.047487     1.632619
  216    5.381541    7.712820   26.397344    0.270829     0.041399     1.594444
  217    9.001856    7.168431   10.277373    0.302573     0.063520     1.884747
  218    9.001856    7.168431   18.337383    0.297170     0.071290     1.836807
  219    9.001856    7.168431   26.397344    0.289252     0.076039     1.820827
  220    3.358395    8.516388   14.291044    0.282736     0.039532     1.952218
  221    3.358395    8.516388   22.351053    0.259290     0.035144     1.791530
  222    3.358395    8.516388   30.411014    0.277992     0.032615     7.374749
  223    5.643094   11.378842   14.291044    0.267229     0.039532     1.650374
  224    5.643094   11.378842   22.351053    0.258027     0.035144     1.554494
  225    5.643094   11.378842   30.411014    0.277230     0.032615     3.625674
  226    5.696211    5.561932   14.291044    0.283232     0.074537     1.672569
  227    5.696211    5.561932   22.351053    0.289083     0.072306     1.707192
  228    5.696211    5.561932   30.411014    0.297424     0.071111     5.938329
  229    6.267628    6.364291    8.660451    0.360865     0.041536   151.949833
  230    6.267628    6.364291   16.720461    0.315068     0.042223     2.997129
  231    6.267628    6.364291   24.780422    0.325758     0.044708     3.045957
  232    7.181855    6.364291   10.020646    0.330375     0.040533     2.862187
  233    7.181855    6.364291   18.080655    0.331210     0.044821     1.963759
  234    7.181855    6.364291   26.140665    0.331546     0.050317     2.033005
  235    6.052248   10.482801    8.660451    0.365304     0.088911   144.645218
  236    6.052248   10.482801   16.720461    0.309392     0.042223     2.983813
  237    6.052248   10.482801   24.780422    0.319761     0.044708     3.059273
  238    5.595135    9.691058   10.020646    0.343783     0.125902     1.806623
  239    5.595135    9.691058   18.080655    0.356565     0.141450     1.843021
  240    5.595135    9.691058   26.140665    0.354515     0.140506     1.936238
  241    2.377823    8.610070    8.660451    0.359192     0.041536   149.824499
  242    2.377823    8.610070   16.720461    0.312697     0.042223     2.994466
  243    2.377823    8.610070   24.780422    0.321652     0.044708     3.037967
  244    1.920710    9.401814   10.020646    0.328168     0.040533     1.765785
  245    1.920710    9.401814   18.080655    0.329760     0.044821     1.720508
  246    1.920710    9.401814   26.140665    0.330096     0.050317     1.794194
  247    8.421958    6.364291   12.666889    0.340209     0.056413     3.074366
  248    8.421958    6.364291   20.726899    0.349062     0.061121     3.086794
  249    8.421958    6.364291   28.786909    0.367419     0.066678     3.243043
  250    7.514214    6.364291   14.035152    0.333120     0.053018     2.058751
  251    7.514214    6.364291   22.095162    0.333902     0.059412     2.034781
  252    7.514214    6.364291   30.155172    0.334546     0.059040     2.791165
  253    4.975083    8.617097   12.666889    0.325695     0.056413     3.025538
  254    4.975083    8.617097   20.726899    0.338230     0.061121     3.113428
  255    4.975083    8.617097   28.786909    0.355348     0.066678     3.231502
  256    5.428956    9.403226   14.035152    0.356695     0.140541     1.838582
  257    5.428956    9.403226   22.095162    0.358764     0.136850     1.914931
  258    5.428956    9.403226   30.155172    0.353299     0.133644     2.972271
  259    1.300658   10.475775   12.666889    0.337630     0.056413     3.066376
  260    1.300658   10.475775   20.726899    0.342810     0.061121     3.066376
  261    1.300658   10.475775   28.786909    0.362484     0.066678     3.232390
  262    1.754531    9.689645   14.035152    0.331328     0.053018     1.687661
  263    1.754531    9.689645   22.095162    0.332216     0.059412     1.723172
  264    1.754531    9.689645   30.155172    0.332965     0.059040     2.735235
  265   12.991944    1.349739   14.291044    0.282495     0.074537     1.671681
  266   12.991944    1.349739   22.351053    0.288797     0.072306     1.706304
  267   12.991944    1.349739   30.411014    0.296679     0.071111     5.846000
  268   11.337578    4.211620   10.277373    0.213691     0.090016     1.529637
  269   11.337578    4.211620   18.337383    0.134687     0.047487     0.973002
  270   11.337578    4.211620   26.397344    0.283069     0.041399     1.943340
  271    9.317519    7.714029   14.291044    0.279869     0.074537     1.664579
  272    9.317519    7.714029   22.351053    0.286229     0.072306     1.698314
  273    9.317519    7.714029   30.411014    0.297140     0.071111     5.850439
  274    7.663153   10.575911   10.277373    0.214465     0.090016     4.276413
  275    7.663153   10.575911   18.337383    0.134834     0.047487     1.047575
  276    7.663153   10.575911   26.397344    0.283252     0.041399     2.044546
  277   -2.021419   11.924440   10.277373    0.215439     0.090016     1.448849
  278   -2.021419   11.924440   18.337383    0.108817     0.047487     0.798110
  279   -2.021419   11.924440   26.397344    0.282855     0.041399     1.800408
  280   -5.327064   11.926222   14.291044    0.283232     0.074537     1.672569
  281   -5.327064   11.926222   22.351053    0.289083     0.072306     1.707192
  282   -5.327064   11.926222   30.411014    0.297423     0.071111     5.935665
  283    5.327431   11.924440   10.277373    0.217588     0.090016     1.521647
  284    5.327431   11.924440   18.337383    0.108822     0.047487     0.799885
  285    5.327431   11.924440   26.397344    0.282827     0.041399     1.770224
  286    2.021786   11.926222   14.291044    0.283232     0.074537     1.672569
  287    2.021786   11.926222   22.351053    0.289083     0.072306     1.707192
  288    2.021786   11.926222   30.411014    0.297423     0.071111     5.936553
  289    2.509118    0.000000    9.627338    7.397166     0.725118    76.776577
  290    2.509118    0.000000   17.687347    7.371642     0.728962    27.172136
  291    2.509118    0.000000   25.747357    7.359200     0.732893    27.016776
  292    2.536941    0.000000   14.582507    7.415406     0.698074    27.308854
  293    2.536941    0.000000   22.642517    7.433962     0.715525    27.521920
  294    2.536941    0.000000   30.702526    7.347819     0.692799   212.882286
  295    2.419866    4.191331    9.627338    7.381385     0.765624    73.374623
  296    2.419866    4.191331   17.687347    7.354945     0.745225    27.107329
  297    2.419866    4.191331   25.747357    7.345028     0.747907    26.967948
  298    2.405955    4.167236   14.582507    7.442900     0.694833    27.320395
  299    2.405955    4.167236   22.642517    7.462482     0.727663    27.554768
  300    2.405955    4.167236   30.702526    7.361032     0.689533   200.470300
  301   -1.254559    2.172960    9.627338    7.399677     0.725118    76.124063
  302   -1.254559    2.172960   17.687347    7.374736     0.728962    27.174800
  303   -1.254559    2.172960   25.747357    7.362750     0.732893    27.023878
  304   -1.268470    2.197055   14.582507    7.416350     0.698074    27.310629
  305   -1.268470    2.197055   22.642517    7.435408     0.715525    27.537900
  306   -1.268470    2.197055   30.702526    7.348544     0.692799   209.925994
  307    4.833633    0.000000   13.635694    7.348176     0.731266    27.030980
  308    4.833633    0.000000   21.695655    7.335136     0.735415    26.928886
  309    4.833633    0.000000   29.755665    7.300098     0.697758    29.145661
  310    4.807603    0.000000   10.557717    7.476684     0.675084    29.966853
  311    4.807603    0.000000   18.617727    7.579952     0.741697    28.198405
  312    4.807603    0.000000   26.677737    7.404250     0.697120    27.111768
  313    1.257609    2.178242   13.635694    7.341293     0.744791    27.002571
  314    1.257609    2.178242   21.695655    7.325574     0.737186    26.866742
  315    1.257609    2.178242   29.755665    7.296302     0.728341    30.599837
  316    1.270624    2.200784   10.557717    7.408397     0.700329    31.608349
  317    1.270624    2.200784   18.617727    7.410629     0.697526    27.292874
  318    1.270624    2.200784   26.677737    7.428509     0.694824    27.309742
  319   12.280884    4.186048   13.635694    7.353087     0.731266    27.038970
  320   12.280884    4.186048   21.695655    7.340750     0.735415    26.932437
  321   12.280884    4.186048   29.755665    7.305147     0.697758    29.299246
  322   12.293899    4.163506   10.557717    7.484487     0.675084    30.056518
  323   12.293899    4.163506   18.617727    7.559314     0.741697    28.155791
  324   12.293899    4.163506   26.677737    7.404078     0.697120    27.113543
  325    9.857968    0.000000    9.627338    7.397340     0.725118    76.855589
  326    9.857968    0.000000   17.687347    7.370274     0.728962    27.165034
  327    9.857968    0.000000   25.747357    7.359273     0.732893    27.017664
  328    9.885791    0.000000   14.582507    7.415406     0.698074    27.308854
  329    9.885791    0.000000   22.642517    7.433960     0.715525    27.521032
  330    9.885791    0.000000   30.702526    7.347818     0.692799   211.618981
  331    9.768716    4.191331    9.627338    7.381381     0.765624    73.307152
  332    9.768716    4.191331   17.687347    7.354944     0.745225    27.107329
  333    9.768716    4.191331   25.747357    7.345030     0.747907    26.969724
  334    9.754805    4.167236   14.582507    7.442908     0.694833    27.322170
  335    9.754805    4.167236   22.642517    7.462489     0.727663    27.556543
  336    9.754805    4.167236   30.702526    7.360635     0.689533   200.497821
  337    6.094291    2.172960    9.627338    7.399143     0.725118    76.114297
  338    6.094291    2.172960   17.687347    7.372364     0.728962    27.170361
  339    6.094291    2.172960   25.747357    7.362468     0.732893    27.022990
  340    6.080380    2.197055   14.582507    7.419364     0.698074    27.320395
  341    6.080380    2.197055   22.642517    7.438192     0.715525    27.546778
  342    6.080380    2.197055   30.702526    7.349368     0.692799   209.947301
  343   12.182483    0.000000   13.635694    7.348197     0.731266    27.030980
  344   12.182483    0.000000   21.695655    7.335051     0.735415    26.920896
  345   12.182483    0.000000   29.755665    7.300457     0.697758    29.181172
  346   12.156453    0.000000   10.557717    7.474682     0.675084    29.958863
  347   12.156453    0.000000   18.617727    7.582492     0.741697    28.206395
  348   12.156453    0.000000   26.677737    7.404250     0.697120    27.111768
  349    8.606459    2.178242   13.635694    7.341299     0.744791    27.003459
  350    8.606459    2.178242   21.695655    7.324273     0.737186    26.864966
  351    8.606459    2.178242   29.755665    7.299387     0.728341    30.604275
  352    8.619474    2.200784   10.557717    7.408151     0.700329    31.627880
  353    8.619474    2.200784   18.617727    7.410628     0.697526    27.292874
  354    8.619474    2.200784   26.677737    7.428502     0.694824    27.307966
  355    4.932034    4.186048   13.635694    7.354164     0.731266    27.050511
  356    4.932034    4.186048   21.695655    7.338912     0.735415    26.922672
  357    4.932034    4.186048   29.755665    7.306207     0.697758    29.315226
  358    4.945049    4.163506   10.557717    7.486094     0.675084    30.065396
  359    4.945049    4.163506   18.617727    7.559056     0.741697    28.154016
  360    4.945049    4.163506   26.677737    7.404533     0.697120    27.115319
  361   -1.165307    6.364291    9.627338    7.396970     0.725118    76.814752
  362   -1.165307    6.364291   17.687347    7.371423     0.728962    27.170361
  363   -1.165307    6.364291   25.747357    7.359059     0.732893    27.014112
  364   -1.137484    6.364291   14.582507    7.415407     0.698074    27.308854
  365   -1.137484    6.364291   22.642517    7.433960     0.715525    27.521032
  366   -1.137484    6.364291   30.702526    7.347816     0.692799   211.658043
  367   -1.254559   10.555621    9.627338    7.381378     0.765624    73.388827
  368   -1.254559   10.555621   17.687347    7.354943     0.745225    27.106441
  369   -1.254559   10.555621   25.747357    7.345029     0.747907    26.968836
  370   -1.268470   10.531526   14.582507    7.442896     0.694833    27.319507
  371   -1.268470   10.531526   22.642517    7.462488     0.727663    27.556543
  372   -1.268470   10.531526   30.702526    7.360797     0.689533   200.005994