  93  93   0   0
  0.1016658E+02  0.9814900E-09  0.9814900E-09  0.9814900E-09  0.5000000E-15
  1.000000000000000E-004
  CAR 
 ice                                     
      9.59974155    -25.14208595  301     -1.98075453      1.00000000
    -25.142  0.0000E+00  0.0000E+00
    -25.026  0.0000E+00  0.0000E+00
    -24.910  0.0000E+00  0.0000E+00
    -24.795  0.0000E+00  0.0000E+00
    -24.679  0.0000E+00  0.0000E+00
    -24.563  0.0000E+00  0.0000E+00
    -24.447  0.0000E+00  0.0000E+00
    -24.331  0.0000E+00  0.0000E+00
    -24.216  0.0000E+00  0.0000E+00
    -24.100  0.0000E+00  0.0000E+00
    -23.984  0.5140E-02  0.5953E-03
    -23.868  0.4910E-01  0.6281E-02
    -23.752  0.4875E+00  0.6274E-01
    -23.637  0.4254E+01  0.5554E+00
    -23.521  0.1772E+02  0.2607E+01
    -23.405  0.1975E+02  0.4895E+01
    -23.289  0.8925E+01  0.5929E+01
    -23.173  0.6365E+01  0.6666E+01
    -23.058  0.1193E+02  0.8050E+01
    -22.942  0.1340E+02  0.9604E+01
    -22.826  0.1732E+02  0.1161E+02
    -22.710  0.2905E+02  0.1498E+02
    -22.594  0.2551E+02  0.1793E+02
    -22.479  0.2183E+02  0.2046E+02
    -22.363  0.2075E+02  0.2287E+02
    -22.247  0.1969E+02  0.2515E+02
    -22.131  0.1205E+02  0.2656E+02
    -22.015  0.1886E+02  0.2874E+02
    -21.900  0.2568E+02  0.3172E+02
    -21.784  0.2677E+02  0.3482E+02
    -21.668  0.2834E+02  0.3811E+02
    -21.552  0.2337E+02  0.4082E+02
    -21.436  0.2079E+02  0.4323E+02
    -21.320  0.1706E+02  0.4521E+02
    -21.205  0.1973E+02  0.4750E+02
    -21.089  0.2303E+02  0.5017E+02
    -20.973  0.2191E+02  0.5271E+02
    -20.857  0.2057E+02  0.5509E+02
    -20.741  0.6835E+01  0.5589E+02
    -20.626  0.9717E+00  0.5600E+02
    -20.510  0.1218E+01  0.5615E+02
    -20.394  0.6504E+01  0.5690E+02
    -20.278  0.7759E+01  0.5780E+02
    -20.162  0.2849E+01  0.5813E+02
    -20.047  0.7074E+01  0.5895E+02
    -19.931  0.1082E+02  0.6021E+02
    -19.815  0.1062E+02  0.6144E+02
    -19.699  0.4245E+01  0.6193E+02
    -19.583  0.5475E+00  0.6199E+02
    -19.468  0.5597E-01  0.6200E+02
    -19.352  0.0000E+00  0.6200E+02
    -19.236  0.0000E+00  0.6200E+02
    -19.120  0.0000E+00  0.6200E+02
    -19.004  0.0000E+00  0.6200E+02
    -18.889  0.0000E+00  0.6200E+02
    -18.773  0.0000E+00  0.6200E+02
    -18.657  0.0000E+00  0.6200E+02
    -18.541  0.0000E+00  0.6200E+02
    -18.425  0.0000E+00  0.6200E+02
    -18.310  0.0000E+00  0.6200E+02
    -18.194  0.0000E+00  0.6200E+02
    -18.078  0.0000E+00  0.6200E+02
    -17.962  0.0000E+00  0.6200E+02
    -17.846  0.0000E+00  0.6200E+02
    -17.730  0.0000E+00  0.6200E+02
    -17.615  0.0000E+00  0.6200E+02
    -17.499  0.0000E+00  0.6200E+02
    -17.383  0.0000E+00  0.6200E+02
    -17.267  0.0000E+00  0.6200E+02
    -17.151  0.0000E+00  0.6200E+02
    -17.036  0.0000E+00  0.6200E+02
    -16.920  0.0000E+00  0.6200E+02
    -16.804  0.0000E+00  0.6200E+02
    -16.688  0.0000E+00  0.6200E+02
    -16.572  0.0000E+00  0.6200E+02
    -16.457  0.0000E+00  0.6200E+02
    -16.341  0.0000E+00  0.6200E+02
    -16.225  0.0000E+00  0.6200E+02
    -16.109  0.0000E+00  0.6200E+02
    -15.993  0.0000E+00  0.6200E+02
    -15.878  0.0000E+00  0.6200E+02
    -15.762  0.0000E+00  0.6200E+02
    -15.646  0.0000E+00  0.6200E+02
    -15.530  0.0000E+00  0.6200E+02
    -15.414  0.0000E+00  0.6200E+02
    -15.299  0.0000E+00  0.6200E+02
    -15.183  0.0000E+00  0.6200E+02
    -15.067  0.0000E+00  0.6200E+02
    -14.951  0.0000E+00  0.6200E+02
    -14.835  0.0000E+00  0.6200E+02
    -14.720  0.0000E+00  0.6200E+02
    -14.604  0.0000E+00  0.6200E+02
    -14.488  0.0000E+00  0.6200E+02
    -14.372  0.0000E+00  0.6200E+02
    -14.256  0.0000E+00  0.6200E+02
    -14.141  0.0000E+00  0.6200E+02
    -14.025  0.0000E+00  0.6200E+02
    -13.909  0.0000E+00  0.6200E+02
    -13.793  0.0000E+00  0.6200E+02
    -13.677  0.0000E+00  0.6200E+02
    -13.561  0.0000E+00  0.6200E+02
    -13.446  0.0000E+00  0.6200E+02
    -13.330  0.0000E+00  0.6200E+02
    -13.214  0.0000E+00  0.6200E+02
    -13.098  0.0000E+00  0.6200E+02
    -12.982  0.0000E+00  0.6200E+02
    -12.867  0.0000E+00  0.6200E+02
    -12.751  0.0000E+00  0.6200E+02
    -12.635  0.0000E+00  0.6200E+02
    -12.519  0.0000E+00  0.6200E+02
    -12.403  0.0000E+00  0.6200E+02
    -12.288  0.0000E+00  0.6200E+02
    -12.172  0.3957E-02  0.6200E+02
    -12.056  0.3610E-01  0.6200E+02
    -11.940  0.3606E+00  0.6205E+02
    -11.824  0.3185E+01  0.6242E+02
    -11.709  0.1394E+02  0.6403E+02
    -11.593  0.1363E+02  0.6561E+02
    -11.477  0.3028E+01  0.6596E+02
    -11.361  0.5128E+00  0.6602E+02
    -11.245  0.1592E+01  0.6621E+02
    -11.130  0.7525E+01  0.6708E+02
    -11.014  0.6633E+01  0.6785E+02
    -10.898  0.1369E+01  0.6801E+02
    -10.782  0.1694E+01  0.6820E+02
    -10.666  0.8659E+01  0.6921E+02
    -10.551  0.1582E+02  0.7104E+02
    -10.435  0.1860E+02  0.7319E+02
    -10.319  0.3120E+02  0.7680E+02
    -10.203  0.3563E+02  0.8093E+02
    -10.087  0.4033E+02  0.8560E+02
     -9.971  0.3494E+02  0.8965E+02
     -9.856  0.2246E+02  0.9226E+02
     -9.740  0.2640E+02  0.9533E+02
     -9.624  0.3217E+02  0.9906E+02
     -9.508  0.2489E+02  0.1019E+03
     -9.392  0.1538E+02  0.1037E+03
     -9.277  0.1048E+02  0.1049E+03
     -9.161  0.2010E+02  0.1073E+03
     -9.045  0.2675E+02  0.1104E+03
     -8.929  0.2575E+02  0.1134E+03
     -8.813  0.1760E+02  0.1154E+03
     -8.698  0.8666E+01  0.1164E+03
     -8.582  0.1865E+02  0.1186E+03
     -8.466  0.2218E+02  0.1211E+03
     -8.350  0.7769E+01  0.1220E+03
     -8.234  0.7492E+01  0.1229E+03
     -8.119  0.1207E+02  0.1243E+03
     -8.003  0.1531E+02  0.1261E+03
     -7.887  0.2160E+02  0.1286E+03
     -7.771  0.2146E+02  0.1311E+03
     -7.655  0.1881E+02  0.1333E+03
     -7.540  0.1456E+02  0.1350E+03
     -7.424  0.2242E+02  0.1376E+03
     -7.308  0.2635E+02  0.1406E+03
     -7.192  0.2408E+02  0.1434E+03
     -7.076  0.1967E+02  0.1457E+03
     -6.961  0.2293E+02  0.1483E+03
     -6.845  0.2480E+02  0.1512E+03
     -6.729  0.2342E+02  0.1539E+03
     -6.613  0.2159E+02  0.1564E+03
     -6.497  0.1800E+02  0.1585E+03
     -6.381  0.1903E+02  0.1607E+03
     -6.266  0.1254E+02  0.1622E+03
     -6.150  0.1279E+02  0.1637E+03
     -6.034  0.2027E+02  0.1660E+03
     -5.918  0.2299E+02  0.1687E+03
     -5.802  0.2137E+02  0.1712E+03
     -5.687  0.2303E+02  0.1738E+03
     -5.571  0.2197E+02  0.1764E+03
     -5.455  0.2575E+02  0.1794E+03
     -5.339  0.2516E+02  0.1823E+03
     -5.223  0.1926E+02  0.1845E+03
     -5.108  0.1823E+02  0.1866E+03
     -4.992  0.1948E+02  0.1889E+03
     -4.876  0.3015E+02  0.1924E+03
     -4.760  0.3514E+02  0.1965E+03
     -4.644  0.2804E+02  0.1997E+03
     -4.529  0.2888E+02  0.2030E+03
     -4.413  0.2992E+02  0.2065E+03
     -4.297  0.4144E+02  0.2113E+03
     -4.181  0.5014E+02  0.2171E+03
     -4.065  0.3795E+02  0.2215E+03
     -3.950  0.3934E+02  0.2261E+03
     -3.834  0.3945E+02  0.2307E+03
     -3.718  0.3417E+02  0.2346E+03
     -3.602  0.2862E+02  0.2380E+03
     -3.486  0.2098E+02  0.2404E+03
     -3.371  0.2571E+02  0.2434E+03
     -3.255  0.2454E+02  0.2462E+03
     -3.139  0.1231E+02  0.2477E+03
     -3.023  0.2585E+01  0.2480E+03
     -2.907  0.2522E+00  0.2480E+03
     -2.792  0.0000E+00  0.2480E+03
     -2.676  0.0000E+00  0.2480E+03
     -2.560  0.0000E+00  0.2480E+03
     -2.444  0.0000E+00  0.2480E+03
     -2.328  0.0000E+00  0.2480E+03
     -2.212  0.0000E+00  0.2480E+03
     -2.097  0.0000E+00  0.2480E+03
     -1.981  0.0000E+00  0.2480E+03
     -1.865  0.0000E+00  0.2480E+03
     -1.749  0.0000E+00  0.2480E+03
     -1.633  0.0000E+00  0.2480E+03
     -1.518  0.0000E+00  0.2480E+03
     -1.402  0.0000E+00  0.2480E+03
     -1.286  0.0000E+00  0.2480E+03
     -1.170  0.0000E+00  0.2480E+03
     -1.054  0.0000E+00  0.2480E+03
     -0.939  0.0000E+00  0.2480E+03
     -0.823  0.0000E+00  0.2480E+03
     -0.707  0.0000E+00  0.2480E+03
     -0.591  0.0000E+00  0.2480E+03
     -0.475  0.0000E+00  0.2480E+03
     -0.360  0.0000E+00  0.2480E+03
     -0.244  0.0000E+00  0.2480E+03
     -0.128  0.0000E+00  0.2480E+03
     -0.012  0.0000E+00  0.2480E+03
      0.104  0.4953E-05  0.2480E+03
      0.219  0.2084E-03  0.2480E+03
      0.335  0.2366E-02  0.2480E+03
      0.451  0.2401E-01  0.2480E+03
      0.567  0.2083E+00  0.2480E+03
      0.683  0.1046E+01  0.2481E+03
      0.798  0.2746E+01  0.2485E+03
      0.914  0.5012E+01  0.2490E+03
      1.030  0.5350E+01  0.2497E+03
      1.146  0.2408E+01  0.2499E+03
      1.262  0.4271E+00  0.2500E+03
      1.378  0.1436E+00  0.2500E+03
      1.493  0.7960E+00  0.2501E+03
      1.609  0.3289E+01  0.2505E+03
      1.725  0.6110E+01  0.2512E+03
      1.841  0.4431E+01  0.2517E+03
      1.957  0.2289E+01  0.2520E+03
      2.072  0.3018E+01  0.2523E+03
      2.188  0.5723E+01  0.2530E+03
      2.304  0.6431E+01  0.2537E+03
      2.420  0.5697E+01  0.2544E+03
      2.536  0.6066E+01  0.2551E+03
      2.651  0.6870E+01  0.2559E+03
      2.767  0.7409E+01  0.2568E+03
      2.883  0.7405E+01  0.2576E+03
      2.999  0.7088E+01  0.2584E+03
      3.115  0.7137E+01  0.2593E+03
      3.230  0.9240E+01  0.2603E+03
      3.346  0.1013E+02  0.2615E+03
      3.462  0.1072E+02  0.2627E+03
      3.578  0.1085E+02  0.2640E+03
      3.694  0.1057E+02  0.2652E+03
      3.809  0.1165E+02  0.2666E+03
      3.925  0.1257E+02  0.2680E+03
      4.041  0.1297E+02  0.2695E+03
      4.157  0.1369E+02  0.2711E+03
      4.273  0.1469E+02  0.2728E+03
      4.388  0.1546E+02  0.2746E+03
      4.504  0.1475E+02  0.2763E+03
      4.620  0.1433E+02  0.2780E+03
      4.736  0.1485E+02  0.2797E+03
      4.852  0.1501E+02  0.2815E+03
      4.967  0.1573E+02  0.2833E+03
      5.083  0.1757E+02  0.2853E+03
      5.199  0.1925E+02  0.2876E+03
      5.315  0.2128E+02  0.2900E+03
      5.431  0.2162E+02  0.2925E+03
      5.547  0.2085E+02  0.2949E+03
      5.662  0.2109E+02  0.2974E+03
      5.778  0.2139E+02  0.2999E+03
      5.894  0.2203E+02  0.3024E+03
      6.010  0.2312E+02  0.3051E+03
      6.126  0.2481E+02  0.3080E+03
      6.241  0.2592E+02  0.3110E+03
      6.357  0.2687E+02  0.3141E+03
      6.473  0.2743E+02  0.3173E+03
      6.589  0.2715E+02  0.3204E+03
      6.705  0.2541E+02  0.3234E+03
      6.820  0.2498E+02  0.3263E+03
      6.936  0.2424E+02  0.3291E+03
      7.052  0.2316E+02  0.3318E+03
      7.168  0.2144E+02  0.3343E+03
      7.284  0.1972E+02  0.3365E+03
      7.399  0.1807E+02  0.3386E+03
      7.515  0.1594E+02  0.3405E+03
      7.631  0.1309E+02  0.3420E+03
      7.747  0.9666E+01  0.3431E+03
      7.863  0.5395E+01  0.3438E+03
      7.978  0.1620E+01  0.3439E+03
      8.094  0.3598E+00  0.3440E+03
      8.210  0.4740E-01  0.3440E+03
      8.326  0.3912E-02  0.3440E+03
      8.442  0.0000E+00  0.3440E+03
      8.557  0.0000E+00  0.3440E+03
      8.673  0.0000E+00  0.3440E+03
      8.789  0.0000E+00  0.3440E+03
      8.905  0.0000E+00  0.3440E+03
      9.021  0.0000E+00  0.3440E+03
      9.137  0.0000E+00  0.3440E+03
      9.252  0.0000E+00  0.3440E+03
      9.368  0.0000E+00  0.3440E+03
      9.484  0.0000E+00  0.3440E+03
      9.600  0.0000E+00  0.3440E+03
