  93  93   0   0
  0.1016658E+02  0.9814900E-09  0.9814900E-09  0.9814900E-09  0.5000000E-15
  1.000000000000000E-004
  CAR 
 ice                                     
      9.69923097    -25.21886512  301     -1.70723342      1.00000000
    -25.219  0.0000E+00  0.0000E+00
    -25.102  0.0000E+00  0.0000E+00
    -24.986  0.0000E+00  0.0000E+00
    -24.870  0.0000E+00  0.0000E+00
    -24.753  0.0000E+00  0.0000E+00
    -24.637  0.0000E+00  0.0000E+00
    -24.521  0.0000E+00  0.0000E+00
    -24.404  0.0000E+00  0.0000E+00
    -24.288  0.0000E+00  0.0000E+00
    -24.171  0.0000E+00  0.0000E+00
    -24.055  0.3359E-02  0.3909E-03
    -23.939  0.3271E-01  0.4198E-02
    -23.822  0.3274E+00  0.4231E-01
    -23.706  0.2804E+01  0.3687E+00
    -23.589  0.1023E+02  0.1559E+01
    -23.473  0.1201E+02  0.2957E+01
    -23.357  0.7787E+01  0.3864E+01
    -23.240  0.3867E+01  0.4314E+01
    -23.124  0.9206E+01  0.5386E+01
    -23.007  0.8717E+01  0.6402E+01
    -22.891  0.1974E+02  0.8701E+01
    -22.775  0.3397E+02  0.1265E+02
    -22.658  0.2945E+02  0.1608E+02
    -22.542  0.2122E+02  0.1855E+02
    -22.425  0.1908E+02  0.2078E+02
    -22.309  0.2727E+02  0.2395E+02
    -22.193  0.3054E+02  0.2751E+02
    -22.076  0.3163E+02  0.3120E+02
    -21.960  0.3099E+02  0.3481E+02
    -21.843  0.2665E+02  0.3791E+02
    -21.727  0.1538E+02  0.3971E+02
    -21.611  0.1047E+02  0.4093E+02
    -21.494  0.1367E+02  0.4253E+02
    -21.378  0.1680E+02  0.4449E+02
    -21.261  0.2003E+02  0.4682E+02
    -21.145  0.1377E+02  0.4843E+02
    -21.029  0.1735E+02  0.5045E+02
    -20.912  0.1771E+02  0.5252E+02
    -20.796  0.1225E+02  0.5394E+02
    -20.680  0.1222E+02  0.5537E+02
    -20.563  0.1583E+02  0.5722E+02
    -20.447  0.5841E+01  0.5790E+02
    -20.330  0.8841E+00  0.5800E+02
    -20.214  0.1114E+01  0.5814E+02
    -20.098  0.6192E+01  0.5886E+02
    -19.981  0.7844E+01  0.5977E+02
    -19.865  0.1769E+01  0.5998E+02
    -19.748  0.2613E+00  0.6001E+02
    -19.632  0.6613E+00  0.6009E+02
    -19.516  0.4669E+01  0.6063E+02
    -19.399  0.8767E+01  0.6165E+02
    -19.283  0.2662E+01  0.6196E+02
    -19.166  0.3141E+00  0.6200E+02
    -19.050  0.0000E+00  0.6200E+02
    -18.934  0.0000E+00  0.6200E+02
    -18.817  0.0000E+00  0.6200E+02
    -18.701  0.0000E+00  0.6200E+02
    -18.584  0.0000E+00  0.6200E+02
    -18.468  0.0000E+00  0.6200E+02
    -18.352  0.0000E+00  0.6200E+02
    -18.235  0.0000E+00  0.6200E+02
    -18.119  0.0000E+00  0.6200E+02
    -18.002  0.0000E+00  0.6200E+02
    -17.886  0.0000E+00  0.6200E+02
    -17.770  0.0000E+00  0.6200E+02
    -17.653  0.0000E+00  0.6200E+02
    -17.537  0.0000E+00  0.6200E+02
    -17.420  0.0000E+00  0.6200E+02
    -17.304  0.0000E+00  0.6200E+02
    -17.188  0.0000E+00  0.6200E+02
    -17.071  0.0000E+00  0.6200E+02
    -16.955  0.0000E+00  0.6200E+02
    -16.839  0.0000E+00  0.6200E+02
    -16.722  0.0000E+00  0.6200E+02
    -16.606  0.0000E+00  0.6200E+02
    -16.489  0.0000E+00  0.6200E+02
    -16.373  0.0000E+00  0.6200E+02
    -16.257  0.0000E+00  0.6200E+02
    -16.140  0.0000E+00  0.6200E+02
    -16.024  0.0000E+00  0.6200E+02
    -15.907  0.0000E+00  0.6200E+02
    -15.791  0.0000E+00  0.6200E+02
    -15.675  0.0000E+00  0.6200E+02
    -15.558  0.0000E+00  0.6200E+02
    -15.442  0.0000E+00  0.6200E+02
    -15.325  0.0000E+00  0.6200E+02
    -15.209  0.0000E+00  0.6200E+02
    -15.093  0.0000E+00  0.6200E+02
    -14.976  0.0000E+00  0.6200E+02
    -14.860  0.0000E+00  0.6200E+02
    -14.743  0.0000E+00  0.6200E+02
    -14.627  0.0000E+00  0.6200E+02
    -14.511  0.0000E+00  0.6200E+02
    -14.394  0.0000E+00  0.6200E+02
    -14.278  0.0000E+00  0.6200E+02
    -14.161  0.0000E+00  0.6200E+02
    -14.045  0.0000E+00  0.6200E+02
    -13.929  0.0000E+00  0.6200E+02
    -13.812  0.0000E+00  0.6200E+02
    -13.696  0.0000E+00  0.6200E+02
    -13.579  0.0000E+00  0.6200E+02
    -13.463  0.0000E+00  0.6200E+02
    -13.347  0.0000E+00  0.6200E+02
    -13.230  0.0000E+00  0.6200E+02
    -13.114  0.0000E+00  0.6200E+02
    -12.998  0.0000E+00  0.6200E+02
    -12.881  0.0000E+00  0.6200E+02
    -12.765  0.0000E+00  0.6200E+02
    -12.648  0.0000E+00  0.6200E+02
    -12.532  0.0000E+00  0.6200E+02
    -12.416  0.0000E+00  0.6200E+02
    -12.299  0.0000E+00  0.6200E+02
    -12.183  0.3576E-02  0.6200E+02
    -12.066  0.3303E-01  0.6200E+02
    -11.950  0.3322E+00  0.6204E+02
    -11.834  0.2789E+01  0.6237E+02
    -11.717  0.8886E+01  0.6340E+02
    -11.601  0.5056E+01  0.6399E+02
    -11.484  0.4761E+01  0.6454E+02
    -11.368  0.9264E+01  0.6562E+02
    -11.252  0.5472E+01  0.6626E+02
    -11.135  0.1341E+02  0.6782E+02
    -11.019  0.2342E+02  0.7055E+02
    -10.902  0.1097E+02  0.7183E+02
    -10.786  0.3673E+01  0.7226E+02
    -10.670  0.1176E+02  0.7363E+02
    -10.553  0.2054E+02  0.7602E+02
    -10.437  0.1916E+02  0.7825E+02
    -10.320  0.2063E+02  0.8065E+02
    -10.204  0.2424E+02  0.8348E+02
    -10.088  0.3007E+02  0.8698E+02
     -9.971  0.2492E+02  0.8989E+02
     -9.855  0.1886E+02  0.9209E+02
     -9.739  0.2316E+02  0.9479E+02
     -9.622  0.2098E+02  0.9724E+02
     -9.506  0.1038E+02  0.9845E+02
     -9.389  0.1872E+02  0.1006E+03
     -9.273  0.2461E+02  0.1035E+03
     -9.157  0.2235E+02  0.1061E+03
     -9.040  0.2226E+02  0.1087E+03
     -8.924  0.1830E+02  0.1108E+03
     -8.807  0.1800E+02  0.1129E+03
     -8.691  0.1662E+02  0.1149E+03
     -8.575  0.2191E+02  0.1174E+03
     -8.458  0.2655E+02  0.1205E+03
     -8.342  0.2415E+02  0.1233E+03
     -8.225  0.1303E+02  0.1248E+03
     -8.109  0.8496E+01  0.1258E+03
     -7.993  0.6231E+01  0.1266E+03
     -7.876  0.1116E+02  0.1279E+03
     -7.760  0.1214E+02  0.1293E+03
     -7.643  0.1465E+02  0.1310E+03
     -7.527  0.2296E+02  0.1337E+03
     -7.411  0.2613E+02  0.1367E+03
     -7.294  0.2545E+02  0.1397E+03
     -7.178  0.2705E+02  0.1428E+03
     -7.061  0.2424E+02  0.1456E+03
     -6.945  0.2347E+02  0.1484E+03
     -6.829  0.2280E+02  0.1510E+03
     -6.712  0.2234E+02  0.1536E+03
     -6.596  0.2241E+02  0.1563E+03
     -6.479  0.1320E+02  0.1578E+03
     -6.363  0.1144E+02  0.1591E+03
     -6.247  0.2044E+02  0.1615E+03
     -6.130  0.2579E+02  0.1645E+03
     -6.014  0.2329E+02  0.1672E+03
     -5.898  0.1631E+02  0.1691E+03
     -5.781  0.1289E+02  0.1706E+03
     -5.665  0.1918E+02  0.1729E+03
     -5.548  0.2930E+02  0.1763E+03
     -5.432  0.2948E+02  0.1797E+03
     -5.316  0.2663E+02  0.1828E+03
     -5.199  0.2708E+02  0.1860E+03
     -5.083  0.2752E+02  0.1892E+03
     -4.966  0.2413E+02  0.1920E+03
     -4.850  0.2346E+02  0.1947E+03
     -4.734  0.2552E+02  0.1977E+03
     -4.617  0.3127E+02  0.2013E+03
     -4.501  0.4575E+02  0.2067E+03
     -4.384  0.4715E+02  0.2122E+03
     -4.268  0.3393E+02  0.2161E+03
     -4.152  0.2720E+02  0.2193E+03
     -4.035  0.3302E+02  0.2231E+03
     -3.919  0.3614E+02  0.2274E+03
     -3.802  0.2917E+02  0.2308E+03
     -3.686  0.3960E+02  0.2354E+03
     -3.570  0.3547E+02  0.2395E+03
     -3.453  0.2254E+02  0.2421E+03
     -3.337  0.2069E+02  0.2445E+03
     -3.220  0.1042E+02  0.2458E+03
     -3.104  0.2124E+01  0.2460E+03
     -2.988  0.3005E+01  0.2464E+03
     -2.871  0.8861E+01  0.2474E+03
     -2.755  0.4413E+01  0.2479E+03
     -2.638  0.6089E+00  0.2480E+03
     -2.522  0.6178E-01  0.2480E+03
     -2.406  0.0000E+00  0.2480E+03
     -2.289  0.0000E+00  0.2480E+03
     -2.173  0.0000E+00  0.2480E+03
     -2.057  0.0000E+00  0.2480E+03
     -1.940  0.0000E+00  0.2480E+03
     -1.824  0.0000E+00  0.2480E+03
     -1.707  0.0000E+00  0.2480E+03
     -1.591  0.0000E+00  0.2480E+03
     -1.475  0.0000E+00  0.2480E+03
     -1.358  0.0000E+00  0.2480E+03
     -1.242  0.0000E+00  0.2480E+03
     -1.125  0.0000E+00  0.2480E+03
     -1.009  0.0000E+00  0.2480E+03
     -0.893  0.0000E+00  0.2480E+03
     -0.776  0.0000E+00  0.2480E+03
     -0.660  0.0000E+00  0.2480E+03
     -0.543  0.0000E+00  0.2480E+03
     -0.427  0.0000E+00  0.2480E+03
     -0.311  0.0000E+00  0.2480E+03
     -0.194  0.0000E+00  0.2480E+03
     -0.078  0.0000E+00  0.2480E+03
      0.039  0.0000E+00  0.2480E+03
      0.155  0.0000E+00  0.2480E+03
      0.271  0.2409E-04  0.2480E+03
      0.388  0.3601E-03  0.2480E+03
      0.504  0.3801E-02  0.2480E+03
      0.621  0.3726E-01  0.2480E+03
      0.737  0.2711E+00  0.2480E+03
      0.853  0.9159E+00  0.2481E+03
      0.970  0.1651E+01  0.2483E+03
      1.086  0.2368E+01  0.2486E+03
      1.202  0.3032E+01  0.2490E+03
      1.319  0.3234E+01  0.2493E+03
      1.435  0.3245E+01  0.2497E+03
      1.552  0.3571E+01  0.2501E+03
      1.668  0.4466E+01  0.2507E+03
      1.784  0.5217E+01  0.2513E+03
      1.901  0.4501E+01  0.2518E+03
      2.017  0.4600E+01  0.2523E+03
      2.134  0.6143E+01  0.2530E+03
      2.250  0.6038E+01  0.2537E+03
      2.366  0.5856E+01  0.2544E+03
      2.483  0.6483E+01  0.2552E+03
      2.599  0.7246E+01  0.2560E+03
      2.716  0.7115E+01  0.2569E+03
      2.832  0.8151E+01  0.2578E+03
      2.948  0.8925E+01  0.2588E+03
      3.065  0.8687E+01  0.2599E+03
      3.181  0.8822E+01  0.2609E+03
      3.298  0.9037E+01  0.2619E+03
      3.414  0.8525E+01  0.2629E+03
      3.530  0.8994E+01  0.2640E+03
      3.647  0.9990E+01  0.2651E+03
      3.763  0.1137E+02  0.2665E+03
      3.880  0.1294E+02  0.2680E+03
      3.996  0.1374E+02  0.2696E+03
      4.112  0.1330E+02  0.2711E+03
      4.229  0.1296E+02  0.2726E+03
      4.345  0.1360E+02  0.2742E+03
      4.462  0.1455E+02  0.2759E+03
      4.578  0.1396E+02  0.2775E+03
      4.694  0.1437E+02  0.2792E+03
      4.811  0.1562E+02  0.2810E+03
      4.927  0.1707E+02  0.2830E+03
      5.043  0.1814E+02  0.2851E+03
      5.160  0.1869E+02  0.2873E+03
      5.276  0.1862E+02  0.2895E+03
      5.393  0.1843E+02  0.2916E+03
      5.509  0.2015E+02  0.2940E+03
      5.625  0.2171E+02  0.2965E+03
      5.742  0.2212E+02  0.2991E+03
      5.858  0.2208E+02  0.3017E+03
      5.975  0.2224E+02  0.3043E+03
      6.091  0.2368E+02  0.3070E+03
      6.207  0.2693E+02  0.3102E+03
      6.324  0.2846E+02  0.3135E+03
      6.440  0.2764E+02  0.3167E+03
      6.557  0.2678E+02  0.3198E+03
      6.673  0.2551E+02  0.3228E+03
      6.789  0.2465E+02  0.3257E+03
      6.906  0.2417E+02  0.3285E+03
      7.022  0.2372E+02  0.3312E+03
      7.139  0.2280E+02  0.3339E+03
      7.255  0.2018E+02  0.3363E+03
      7.371  0.1742E+02  0.3383E+03
      7.488  0.1603E+02  0.3402E+03
      7.604  0.1410E+02  0.3418E+03
      7.721  0.1094E+02  0.3431E+03
      7.837  0.5790E+01  0.3438E+03
      7.953  0.1703E+01  0.3440E+03
      8.070  0.3228E+00  0.3440E+03
      8.186  0.5137E-01  0.3440E+03
      8.303  0.7691E-02  0.3440E+03
      8.419  0.6711E-03  0.3440E+03
      8.535  0.0000E+00  0.3440E+03
      8.652  0.0000E+00  0.3440E+03
      8.768  0.0000E+00  0.3440E+03
      8.884  0.0000E+00  0.3440E+03
      9.001  0.0000E+00  0.3440E+03
      9.117  0.0000E+00  0.3440E+03
      9.234  0.0000E+00  0.3440E+03
      9.350  0.0000E+00  0.3440E+03
      9.466  0.0000E+00  0.3440E+03
      9.583  0.0000E+00  0.3440E+03
      9.699  0.0000E+00  0.3440E+03
