Loading vasp/5.4.4-mpi-cuda
  Loading requirement: gcc/8.5.0 intel-compilers/19.0.4 cuda/10.1.1
    intel-mpi/2019.4
 running on   40 total cores
 distrk:  each k-point on   40 cores,    1 groups
 distr:  one band on   20 cores,    2 groups
 using from now: INCAR     
 vasp.5.4.4.18Apr17-6-g9f103f2a35 (build Dec 06 2019 17:20:26) complex          
  
 POSCAR found type information on POSCAR  O  H 
 POSCAR found :  2 types and      93 ions
 scaLAPACK will be used

 ----------------------------------------------------------------------------- 
|                                                                             |
|           W    W    AA    RRRRR   N    N  II  N    N   GGGG   !!!           |
|           W    W   A  A   R    R  NN   N  II  NN   N  G    G  !!!           |
|           W    W  A    A  R    R  N N  N  II  N N  N  G       !!!           |
|           W WW W  AAAAAA  RRRRR   N  N N  II  N  N N  G  GGG   !            |
|           WW  WW  A    A  R   R   N   NN  II  N   NN  G    G                |
|           W    W  A    A  R    R  N    N  II  N    N   GGGG   !!!           |
|                                                                             |
|      For optimal performance we recommend to set                            |
|        NCORE= 4 - approx SQRT( number of cores)                             |
|      NCORE specifies how many cores store one orbital (NPAR=cpu/NCORE).     |
|      This setting can  greatly improve the performance of VASP for DFT.     |
|      The default,   NCORE=1            might be grossly inefficient         |
|      on modern multi-core architectures or massively parallel machines.     |
|      Do your own testing !!!!                                               |
|      Unfortunately you need to use the default for GW and RPA calculations. |
|      (for HF NCORE is supported but not extensively tested yet)             |
|                                                                             |
 ----------------------------------------------------------------------------- 

 LDA part: xc-table for Pade appr. of Perdew
 POSCAR, INCAR and KPOINTS ok, starting setup
 FFT: planning ...
 WAVECAR not read
 WARNING: chargedensity file is incomplete
 WARNING: random wavefunctions but no delay for mixing, default for NELMDL
 entering main loop
       N       E                     dE             d eps       ncg     rms          rms(c)
RMM:   1     0.332070919821E+04    0.33207E+04   -0.74369E+04 86688   0.878E+02
RMM:   2     0.105132646990E+04   -0.22694E+04   -0.24360E+04 86688   0.253E+02
RMM:   3     0.868533221397E+02   -0.96447E+03   -0.10256E+04 86688   0.187E+02
RMM:   4    -0.344161983047E+03   -0.43102E+03   -0.36679E+03 86688   0.130E+02
RMM:   5    -0.451423119824E+03   -0.10726E+03   -0.97687E+02 86688   0.685E+01
RMM:   6    -0.479012102343E+03   -0.27589E+02   -0.25179E+02 86688   0.353E+01
RMM:   7    -0.486340749033E+03   -0.73286E+01   -0.70178E+01 86688   0.180E+01
RMM:   8    -0.488540288524E+03   -0.21995E+01   -0.20727E+01 86688   0.959E+00
RMM:   9    -0.489405088816E+03   -0.86480E+00   -0.84913E+00221722   0.509E+00
RMM:  10    -0.489524914326E+03   -0.11983E+00   -0.11289E+00235487   0.148E+00
RMM:  11    -0.489527185883E+03   -0.22716E-02   -0.38521E-02221809   0.314E-01
RMM:  12    -0.489527827438E+03   -0.64155E-03   -0.62929E-03222981   0.815E-02    0.396E+01
RMM:  13    -0.448309845714E+03    0.41218E+02   -0.14606E+02209649   0.243E+01    0.152E+01
RMM:  14    -0.447098336393E+03    0.12115E+01   -0.53908E+00217708   0.415E+00    0.959E+00
RMM:  15    -0.446601999820E+03    0.49634E+00   -0.15943E+00214216   0.353E+00    0.133E+00
RMM:  16    -0.446558909624E+03    0.43090E-01   -0.27692E-01221760   0.945E-01    0.514E-01
RMM:  17    -0.446568160174E+03   -0.92505E-02   -0.41575E-02208356   0.399E-01    0.311E-01
RMM:  18    -0.446565598276E+03    0.25619E-02   -0.80301E-03217067   0.200E-01    0.797E-02
RMM:  19    -0.446564798652E+03    0.79962E-03   -0.19539E-03218020   0.776E-02    0.339E-02
RMM:  20    -0.446564628628E+03    0.17002E-03   -0.41892E-04220632   0.333E-02    0.194E-02
RMM:  21    -0.446564590205E+03    0.38423E-04   -0.11290E-04220021   0.181E-02    0.112E-02
RMM:  22    -0.446564583010E+03    0.71953E-05   -0.22453E-05215908   0.881E-03    0.339E-03
WARNING in EDDRMM: call to ZHEGV failed, returncode =   8  4     82
RMM:  23    -0.446564582586E+03    0.42316E-06   -0.38709E-06181224   0.387E-03
   1 F= -.44963545E+03 E0= -.44963545E+03  d E =-.820376E-10
