 vasp.5.4.4.18Apr17-6-g9f103f2a35 (build Dec 06 2019 17:20:26) complex          
  
 executed on             LinuxIFC date 2025.07.03  17:37:51
 running on   40 total cores
 distrk:  each k-point on   40 cores,    1 groups
 distr:  one band on NCORES_PER_BAND=  20 cores,    2 groups


--------------------------------------------------------------------------------------------------------


 INCAR:
 POTCAR:    PAW_PBE O 08Apr2002                   
 POTCAR:    PAW_PBE H 15Jun2001                   

 ----------------------------------------------------------------------------- 
|                                                                             |
|           W    W    AA    RRRRR   N    N  II  N    N   GGGG   !!!           |
|           W    W   A  A   R    R  NN   N  II  NN   N  G    G  !!!           |
|           W    W  A    A  R    R  N N  N  II  N N  N  G       !!!           |
|           W WW W  AAAAAA  RRRRR   N  N N  II  N  N N  G  GGG   !            |
|           WW  WW  A    A  R   R   N   NN  II  N   NN  G    G                |
|           W    W  A    A  R    R  N    N  II  N    N   GGGG   !!!           |
|                                                                             |
|      For optimal performance we recommend to set                            |
|        NCORE= 4 - approx SQRT( number of cores)                             |
|      NCORE specifies how many cores store one orbital (NPAR=cpu/NCORE).     |
|      This setting can  greatly improve the performance of VASP for DFT.     |
|      The default,   NCORE=1            might be grossly inefficient         |
|      on modern multi-core architectures or massively parallel machines.     |
|      Do your own testing !!!!                                               |
|      Unfortunately you need to use the default for GW and RPA calculations. |
|      (for HF NCORE is supported but not extensively tested yet)             |
|                                                                             |
 ----------------------------------------------------------------------------- 

 POTCAR:    PAW_PBE O 08Apr2002                   
  local pseudopotential read in
  partial core-charges read in
  partial kinetic energy density read in
  kinetic energy density of atom read in
  atomic valenz-charges read in
  non local Contribution for L=           0  read in
    real space projection operators read in
  non local Contribution for L=           0  read in
    real space projection operators read in
  non local Contribution for L=           1  read in
    real space projection operators read in
  non local Contribution for L=           1  read in
    real space projection operators read in
    PAW grid and wavefunctions read in
 
   number of l-projection  operators is LMAX  =           4
   number of lm-projection operators is LMMAX =           8
 
 POTCAR:    PAW_PBE H 15Jun2001                   
  local pseudopotential read in
  atomic valenz-charges read in
  non local Contribution for L=           0  read in
    real space projection operators read in
  non local Contribution for L=           0  read in
    real space projection operators read in
  non local Contribution for L=           1  read in
    real space projection operators read in
    PAW grid and wavefunctions read in
 
   number of l-projection  operators is LMAX  =           3
   number of lm-projection operators is LMMAX =           5
 
 Optimization of the real space projectors (new method)

 maximal supplied QI-value         = 24.76
 optimisation between [QCUT,QGAM] = [ 10.15, 20.30] = [ 28.85,115.39] Ry 
 Optimized for a Real-space Cutoff    1.38 Angstroem

   l    n(q)    QCUT    max X(q) W(low)/X(q) W(high)/X(q)  e(spline) 
   0      8    10.150    20.381    0.22E-03    0.32E-03    0.29E-06
   0      8    10.150    15.268    0.23E-03    0.35E-03    0.30E-06
   1      8    10.150     5.964    0.46E-03    0.53E-03    0.21E-06
   1      8    10.150     5.382    0.38E-03    0.45E-03    0.19E-06
 Optimization of the real space projectors (new method)

 maximal supplied QI-value         = 34.20
 optimisation between [QCUT,QGAM] = [  9.92, 20.18] = [ 27.55,114.04] Ry 
 Optimized for a Real-space Cutoff    1.26 Angstroem

   l    n(q)    QCUT    max X(q) W(low)/X(q) W(high)/X(q)  e(spline) 
   0      8     9.919    19.460    0.50E-03    0.23E-03    0.29E-06
   0      8     9.919    12.209    0.48E-03    0.23E-03    0.28E-06
   1      7     9.919     4.655    0.17E-03    0.75E-03    0.30E-06
  PAW_PBE O 08Apr2002                   :
 energy of atom  1       EATOM= -432.3788
 kinetic energy error for atom=    0.1156 (will be added to EATOM!!)
  PAW_PBE H 15Jun2001                   :
 energy of atom  2       EATOM=  -12.4884
 kinetic energy error for atom=    0.0098 (will be added to EATOM!!)
 
 
 POSCAR: # 4                                     
  positions in cartesian coordinates
  No initial velocities read in
 exchange correlation table for  LEXCH =        8
   RHO(1)=    0.500       N(1)  =     2000
   RHO(2)=  100.500       N(2)  =     4000
 


--------------------------------------------------------------------------------------------------------


 ion  position               nearest neighbor table
   1  0.580  0.385  0.130-  32 0.96  33 1.10
   2  0.086  0.563  0.752-  35 0.96  34 1.02  88 1.41
   3  0.070  0.383  0.407-  36 1.03  37 1.05
   4  0.070  0.764  0.167-  38 0.92  39 0.93
   5  0.749  0.019  0.699-  41 0.96  40 1.02
   6  0.720  0.393  0.757-  42 0.95  43 1.07
   7  0.575  0.191  0.791-  45 0.90  44 0.99
   8  0.014  0.214  0.184-  46 0.91  47 1.08
   9  0.280  0.858  0.978-  49 1.02  48 1.11
  10  0.840  0.393  0.022-  50 0.98  51 1.02
  11  0.272  0.213  0.706-  52 0.92  53 0.97
  12  0.963  0.331  0.671-  54 0.95  55 1.03
  13  0.727  0.816  0.871-  56 0.99  57 1.05
  14  0.677  0.044  0.434-  58 0.99  59 1.12
  15  0.346  0.610  0.850-  61 1.07  60 1.12
  16  0.232  0.137  0.951-  63 0.92  62 1.07
  17  0.466  0.141  0.092-  64 0.96  65 0.98
  18  0.683  0.654  0.419-  67 0.94  66 1.15
  19  0.844  0.949  0.237-  69 1.12  68 1.13
  20  0.342  0.363  0.440-  70 0.92  71 1.07
  21  0.413  0.119  0.379-  73 1.04  72 1.04
  22  0.004  0.046  0.631-  75 0.97  74 1.02
  23  0.145  0.036  0.373-  76 1.11  77 1.16
  24  0.374  0.834  0.500-  79 1.02  78 1.04
  25  0.354  0.544  0.113-  80 0.95  81 1.07
  26  0.466  0.735  0.262-  82 0.94  83 0.96
  27  0.555  0.652  0.712-  85 1.01  84 1.02
  28  0.637  0.357  0.399-  87 0.92  86 1.02
  29  0.935  0.654  0.952-  89 1.07  88 1.21
  30  0.602  0.911  0.098-  91 0.91  90 1.07
  31  0.972  0.665  0.399-  93 0.97  92 1.01
  32  0.534  0.470  0.122-   1 0.96
  33  0.678  0.407  0.082-   1 1.10
  34  0.049  0.466  0.749-   2 1.02
  35  0.170  0.574  0.801-   2 0.96
  36  0.172  0.407  0.407-   3 1.03
  37  0.029  0.353  0.501-   3 1.05
  38  0.040  0.850  0.189-   4 0.92
  39  0.049  0.721  0.249-   4 0.93
  40  0.684  0.015  0.619-   5 1.02
  41  0.720  0.939  0.748-   5 0.96
  42  0.677  0.461  0.704-   6 0.95
  43  0.650  0.324  0.806-   6 1.07
  44  0.514  0.167  0.867-   7 0.99
  45  0.626  0.115  0.785-   7 0.90
  46  0.938  0.257  0.150-   8 0.91
  47  0.046  0.258  0.279-   8 1.08
  48  0.249  0.967  0.969-   9 1.11
  49  0.231  0.814  0.058-   9 1.02
  50  0.804  0.400  0.929-  10 0.98
  51  0.861  0.494  0.023-  10 1.02
  52  0.181  0.196  0.691-  11 0.92
  53  0.295  0.274  0.632-  11 0.97
  54  0.986  0.238  0.656-  12 0.95
  55  0.862  0.310  0.688-  12 1.03
  56  0.685  0.845  0.959-  13 0.99
  57  0.793  0.745  0.916-  13 1.05
  58  0.691  0.142  0.414-  14 0.99
  59  0.564  0.050  0.416-  14 1.12
  60  0.358  0.570  0.956-  15 1.12
  61  0.304  0.703  0.888-  15 1.07
  62  0.236  0.193  0.857-  16 1.07
  63  0.166  0.164  0.011-  16 0.92
  64  0.375  0.134  0.058-  17 0.96
  65  0.476  0.237  0.116-  17 0.98
  66  0.637  0.630  0.524-  18 1.15
  67  0.605  0.673  0.367-  18 0.94
  68  0.904  0.033  0.185-  19 1.13
  69  0.757  0.982  0.304-  19 1.12
  70  0.409  0.422  0.468-  20 0.92
  71  0.390  0.267  0.421-  20 1.07
  72  0.310  0.098  0.364-  21 1.04
  73  0.429  0.105  0.275-  21 1.04
  74  0.903  0.022  0.643-  22 1.02
  75  0.062  0.965  0.630-  22 0.97
  76  0.068  0.036  0.291-  23 1.11
  77  0.075  0.049  0.467-  23 1.16
  78  0.292  0.798  0.557-  24 1.04
  79  0.445  0.815  0.573-  24 1.02
  80  0.394  0.618  0.158-  25 0.95
  81  0.292  0.473  0.168-  25 1.07
  82  0.431  0.755  0.349-  26 0.94
  83  0.487  0.807  0.199-  26 0.96
  84  0.598  0.691  0.798-  27 1.02
  85  0.463  0.640  0.756-  27 1.01
  86  0.618  0.377  0.299-  28 1.02
  87  0.670  0.444  0.397-  28 0.92
  88  0.007  0.619  0.859-  29 1.21   2 1.41
  89  0.990  0.708  0.028-  29 1.07
  90  0.557  0.010  0.089-  30 1.07
  91  0.690  0.918  0.125-  30 0.91
  92  0.870  0.653  0.408-  31 1.01
  93  0.005  0.572  0.407-  31 0.97
 
  LATTYP: Found a simple cubic cell.
 ALAT       =     9.8149000000
  
  Lattice vectors:
  
 A1 = (   9.8149000000,   0.0000000000,   0.0000000000)
 A2 = (   0.0000000000,   9.8149000000,   0.0000000000)
 A3 = (   0.0000000000,   0.0000000000,   9.8149000000)


Analysis of symmetry for initial positions (statically):
=====================================================================
 Subroutine PRICEL returns:
 Original cell was already a primitive cell.
 

 Routine SETGRP: Setting up the symmetry group for a 
 simple cubic supercell.


 Subroutine GETGRP returns: Found  1 space group operations
 (whereof  1 operations were pure point group operations)
 out of a pool of 48 trial point group operations.


The static configuration has the point symmetry C_1 .


Analysis of symmetry for dynamics (positions and initial velocities):
=====================================================================
 Subroutine PRICEL returns:
 Original cell was already a primitive cell.
 

 Routine SETGRP: Setting up the symmetry group for a 
 simple cubic supercell.


 Subroutine GETGRP returns: Found  1 space group operations
 (whereof  1 operations were pure point group operations)
 out of a pool of 48 trial point group operations.


The dynamic configuration has the point symmetry C_1 .


 Subroutine INISYM returns: Found  1 space group operations
 (whereof  1 operations are pure point group operations),
 and found     1 'primitive' translations

 
 
 KPOINTS: automatic mesh                          

Automatic generation of k-mesh.
Space group operators:
 irot       det(A)        alpha          n_x          n_y          n_z        tau_x        tau_y        tau_z
    1     1.000000     0.000000     1.000000     0.000000     0.000000     0.000000     0.000000     0.000000
 
 Subroutine IBZKPT returns following result:
 ===========================================
 
 Found    504 irreducible k-points:
 
 Following reciprocal coordinates:
            Coordinates               Weight
  0.000000  0.000000  0.000000      1.000000
  0.100000  0.000000  0.000000      2.000000
  0.200000  0.000000  0.000000      2.000000
  0.300000  0.000000  0.000000      2.000000
  0.400000  0.000000  0.000000      2.000000
  0.500000  0.000000  0.000000      1.000000
  0.000000  0.100000  0.000000      2.000000
  0.100000  0.100000  0.000000      2.000000
  0.200000  0.100000  0.000000      2.000000
  0.300000  0.100000  0.000000      2.000000
  0.400000  0.100000  0.000000      2.000000
  0.500000  0.100000  0.000000      2.000000
 -0.400000  0.100000  0.000000      2.000000
 -0.300000  0.100000  0.000000      2.000000
 -0.200000  0.100000  0.000000      2.000000
 -0.100000  0.100000  0.000000      2.000000
  0.000000  0.200000  0.000000      2.000000
  0.100000  0.200000  0.000000      2.000000
  0.200000  0.200000  0.000000      2.000000
  0.300000  0.200000  0.000000      2.000000
  0.400000  0.200000  0.000000      2.000000
  0.500000  0.200000  0.000000      2.000000
 -0.400000  0.200000  0.000000      2.000000
 -0.300000  0.200000  0.000000      2.000000
 -0.200000  0.200000  0.000000      2.000000
 -0.100000  0.200000  0.000000      2.000000
  0.000000  0.300000  0.000000      2.000000
  0.100000  0.300000  0.000000      2.000000
  0.200000  0.300000  0.000000      2.000000
  0.300000  0.300000  0.000000      2.000000
  0.400000  0.300000  0.000000      2.000000
  0.500000  0.300000  0.000000      2.000000
 -0.400000  0.300000  0.000000      2.000000
 -0.300000  0.300000  0.000000      2.000000
 -0.200000  0.300000  0.000000      2.000000
 -0.100000  0.300000  0.000000      2.000000
  0.000000  0.400000  0.000000      2.000000
  0.100000  0.400000  0.000000      2.000000
  0.200000  0.400000  0.000000      2.000000
  0.300000  0.400000  0.000000      2.000000
  0.400000  0.400000  0.000000      2.000000
  0.500000  0.400000  0.000000      2.000000
 -0.400000  0.400000  0.000000      2.000000
 -0.300000  0.400000  0.000000      2.000000
 -0.200000  0.400000  0.000000      2.000000
 -0.100000  0.400000  0.000000      2.000000
  0.000000  0.500000  0.000000      1.000000
  0.100000  0.500000  0.000000      2.000000
  0.200000  0.500000  0.000000      2.000000
  0.300000  0.500000  0.000000      2.000000
  0.400000  0.500000  0.000000      2.000000
  0.500000  0.500000  0.000000      1.000000
  0.000000  0.000000  0.100000      2.000000
  0.100000  0.000000  0.100000      2.000000
  0.200000  0.000000  0.100000      2.000000
  0.300000  0.000000  0.100000      2.000000
  0.400000  0.000000  0.100000      2.000000
  0.500000  0.000000  0.100000      2.000000
 -0.400000  0.000000  0.100000      2.000000
 -0.300000  0.000000  0.100000      2.000000
 -0.200000  0.000000  0.100000      2.000000
 -0.100000  0.000000  0.100000      2.000000
  0.000000  0.100000  0.100000      2.000000
  0.100000  0.100000  0.100000      2.000000
  0.200000  0.100000  0.100000      2.000000
  0.300000  0.100000  0.100000      2.000000
  0.400000  0.100000  0.100000      2.000000
  0.500000  0.100000  0.100000      2.000000
 -0.400000  0.100000  0.100000      2.000000
 -0.300000  0.100000  0.100000      2.000000
 -0.200000  0.100000  0.100000      2.000000
 -0.100000  0.100000  0.100000      2.000000
  0.000000  0.200000  0.100000      2.000000
  0.100000  0.200000  0.100000      2.000000
  0.200000  0.200000  0.100000      2.000000
  0.300000  0.200000  0.100000      2.000000
  0.400000  0.200000  0.100000      2.000000
  0.500000  0.200000  0.100000      2.000000
 -0.400000  0.200000  0.100000      2.000000
 -0.300000  0.200000  0.100000      2.000000
 -0.200000  0.200000  0.100000      2.000000
 -0.100000  0.200000  0.100000      2.000000
  0.000000  0.300000  0.100000      2.000000
  0.100000  0.300000  0.100000      2.000000
  0.200000  0.300000  0.100000      2.000000
  0.300000  0.300000  0.100000      2.000000
  0.400000  0.300000  0.100000      2.000000
  0.500000  0.300000  0.100000      2.000000
 -0.400000  0.300000  0.100000      2.000000
 -0.300000  0.300000  0.100000      2.000000
 -0.200000  0.300000  0.100000      2.000000
 -0.100000  0.300000  0.100000      2.000000
  0.000000  0.400000  0.100000      2.000000
  0.100000  0.400000  0.100000      2.000000
  0.200000  0.400000  0.100000      2.000000
  0.300000  0.400000  0.100000      2.000000
  0.400000  0.400000  0.100000      2.000000
  0.500000  0.400000  0.100000      2.000000
 -0.400000  0.400000  0.100000      2.000000
 -0.300000  0.400000  0.100000      2.000000
 -0.200000  0.400000  0.100000      2.000000
 -0.100000  0.400000  0.100000      2.000000
  0.000000  0.500000  0.100000      2.000000
  0.100000  0.500000  0.100000      2.000000
  0.200000  0.500000  0.100000      2.000000
  0.300000  0.500000  0.100000      2.000000
  0.400000  0.500000  0.100000      2.000000
  0.500000  0.500000  0.100000      2.000000
 -0.400000  0.500000  0.100000      2.000000
 -0.300000  0.500000  0.100000      2.000000
 -0.200000  0.500000  0.100000      2.000000
 -0.100000  0.500000  0.100000      2.000000
  0.000000 -0.400000  0.100000      2.000000
  0.100000 -0.400000  0.100000      2.000000
  0.200000 -0.400000  0.100000      2.000000
  0.300000 -0.400000  0.100000      2.000000
  0.400000 -0.400000  0.100000      2.000000
  0.500000 -0.400000  0.100000      2.000000
 -0.400000 -0.400000  0.100000      2.000000
 -0.300000 -0.400000  0.100000      2.000000
 -0.200000 -0.400000  0.100000      2.000000
 -0.100000 -0.400000  0.100000      2.000000
  0.000000 -0.300000  0.100000      2.000000
  0.100000 -0.300000  0.100000      2.000000
  0.200000 -0.300000  0.100000      2.000000
  0.300000 -0.300000  0.100000      2.000000
  0.400000 -0.300000  0.100000      2.000000
  0.500000 -0.300000  0.100000      2.000000
 -0.400000 -0.300000  0.100000      2.000000
 -0.300000 -0.300000  0.100000      2.000000
 -0.200000 -0.300000  0.100000      2.000000
 -0.100000 -0.300000  0.100000      2.000000
  0.000000 -0.200000  0.100000      2.000000
  0.100000 -0.200000  0.100000      2.000000
  0.200000 -0.200000  0.100000      2.000000
  0.300000 -0.200000  0.100000      2.000000
  0.400000 -0.200000  0.100000      2.000000
  0.500000 -0.200000  0.100000      2.000000
 -0.400000 -0.200000  0.100000      2.000000
 -0.300000 -0.200000  0.100000      2.000000
 -0.200000 -0.200000  0.100000      2.000000
 -0.100000 -0.200000  0.100000      2.000000
  0.000000 -0.100000  0.100000      2.000000
  0.100000 -0.100000  0.100000      2.000000
  0.200000 -0.100000  0.100000      2.000000
  0.300000 -0.100000  0.100000      2.000000
  0.400000 -0.100000  0.100000      2.000000
  0.500000 -0.100000  0.100000      2.000000
 -0.400000 -0.100000  0.100000      2.000000
 -0.300000 -0.100000  0.100000      2.000000
 -0.200000 -0.100000  0.100000      2.000000
 -0.100000 -0.100000  0.100000      2.000000
  0.000000  0.000000  0.200000      2.000000
  0.100000  0.000000  0.200000      2.000000
  0.200000  0.000000  0.200000      2.000000
  0.300000  0.000000  0.200000      2.000000
  0.400000  0.000000  0.200000      2.000000
  0.500000  0.000000  0.200000      2.000000
 -0.400000  0.000000  0.200000      2.000000
 -0.300000  0.000000  0.200000      2.000000
 -0.200000  0.000000  0.200000      2.000000
 -0.100000  0.000000  0.200000      2.000000
  0.000000  0.100000  0.200000      2.000000
  0.100000  0.100000  0.200000      2.000000
  0.200000  0.100000  0.200000      2.000000
  0.300000  0.100000  0.200000      2.000000
  0.400000  0.100000  0.200000      2.000000
  0.500000  0.100000  0.200000      2.000000
 -0.400000  0.100000  0.200000      2.000000
 -0.300000  0.100000  0.200000      2.000000
 -0.200000  0.100000  0.200000      2.000000
 -0.100000  0.100000  0.200000      2.000000
  0.000000  0.200000  0.200000      2.000000
  0.100000  0.200000  0.200000      2.000000
  0.200000  0.200000  0.200000      2.000000
  0.300000  0.200000  0.200000      2.000000
  0.400000  0.200000  0.200000      2.000000
  0.500000  0.200000  0.200000      2.000000
 -0.400000  0.200000  0.200000      2.000000
 -0.300000  0.200000  0.200000      2.000000
 -0.200000  0.200000  0.200000      2.000000
 -0.100000  0.200000  0.200000      2.000000
  0.000000  0.300000  0.200000      2.000000
  0.100000  0.300000  0.200000      2.000000
  0.200000  0.300000  0.200000      2.000000
  0.300000  0.300000  0.200000      2.000000
  0.400000  0.300000  0.200000      2.000000
  0.500000  0.300000  0.200000      2.000000
 -0.400000  0.300000  0.200000      2.000000
 -0.300000  0.300000  0.200000      2.000000
 -0.200000  0.300000  0.200000      2.000000
 -0.100000  0.300000  0.200000      2.000000
  0.000000  0.400000  0.200000      2.000000
  0.100000  0.400000  0.200000      2.000000
  0.200000  0.400000  0.200000      2.000000
  0.300000  0.400000  0.200000      2.000000
  0.400000  0.400000  0.200000      2.000000
  0.500000  0.400000  0.200000      2.000000
 -0.400000  0.400000  0.200000      2.000000
 -0.300000  0.400000  0.200000      2.000000
 -0.200000  0.400000  0.200000      2.000000
 -0.100000  0.400000  0.200000      2.000000
  0.000000  0.500000  0.200000      2.000000
  0.100000  0.500000  0.200000      2.000000
  0.200000  0.500000  0.200000      2.000000
  0.300000  0.500000  0.200000      2.000000
  0.400000  0.500000  0.200000      2.000000
  0.500000  0.500000  0.200000      2.000000
 -0.400000  0.500000  0.200000      2.000000
 -0.300000  0.500000  0.200000      2.000000
 -0.200000  0.500000  0.200000      2.000000
 -0.100000  0.500000  0.200000      2.000000
  0.000000 -0.400000  0.200000      2.000000
  0.100000 -0.400000  0.200000      2.000000
  0.200000 -0.400000  0.200000      2.000000
  0.300000 -0.400000  0.200000      2.000000
  0.400000 -0.400000  0.200000      2.000000
  0.500000 -0.400000  0.200000      2.000000
 -0.400000 -0.400000  0.200000      2.000000
 -0.300000 -0.400000  0.200000      2.000000
 -0.200000 -0.400000  0.200000      2.000000
 -0.100000 -0.400000  0.200000      2.000000
  0.000000 -0.300000  0.200000      2.000000
  0.100000 -0.300000  0.200000      2.000000
  0.200000 -0.300000  0.200000      2.000000
  0.300000 -0.300000  0.200000      2.000000
  0.400000 -0.300000  0.200000      2.000000
  0.500000 -0.300000  0.200000      2.000000
 -0.400000 -0.300000  0.200000      2.000000
 -0.300000 -0.300000  0.200000      2.000000
 -0.200000 -0.300000  0.200000      2.000000
 -0.100000 -0.300000  0.200000      2.000000
  0.000000 -0.200000  0.200000      2.000000
  0.100000 -0.200000  0.200000      2.000000
  0.200000 -0.200000  0.200000      2.000000
  0.300000 -0.200000  0.200000      2.000000
  0.400000 -0.200000  0.200000      2.000000
  0.500000 -0.200000  0.200000      2.000000
 -0.400000 -0.200000  0.200000      2.000000
 -0.300000 -0.200000  0.200000      2.000000
 -0.200000 -0.200000  0.200000      2.000000
 -0.100000 -0.200000  0.200000      2.000000
  0.000000 -0.100000  0.200000      2.000000
  0.100000 -0.100000  0.200000      2.000000
  0.200000 -0.100000  0.200000      2.000000
  0.300000 -0.100000  0.200000      2.000000
  0.400000 -0.100000  0.200000      2.000000
  0.500000 -0.100000  0.200000      2.000000
 -0.400000 -0.100000  0.200000      2.000000
 -0.300000 -0.100000  0.200000      2.000000
 -0.200000 -0.100000  0.200000      2.000000
 -0.100000 -0.100000  0.200000      2.000000
  0.000000  0.000000  0.300000      2.000000
  0.100000  0.000000  0.300000      2.000000
  0.200000  0.000000  0.300000      2.000000
  0.300000  0.000000  0.300000      2.000000
  0.400000  0.000000  0.300000      2.000000
  0.500000  0.000000  0.300000      2.000000
 -0.400000  0.000000  0.300000      2.000000
 -0.300000  0.000000  0.300000      2.000000
 -0.200000  0.000000  0.300000      2.000000
 -0.100000  0.000000  0.300000      2.000000
  0.000000  0.100000  0.300000      2.000000
  0.100000  0.100000  0.300000      2.000000
  0.200000  0.100000  0.300000      2.000000
  0.300000  0.100000  0.300000      2.000000
  0.400000  0.100000  0.300000      2.000000
  0.500000  0.100000  0.300000      2.000000
 -0.400000  0.100000  0.300000      2.000000
 -0.300000  0.100000  0.300000      2.000000
 -0.200000  0.100000  0.300000      2.000000
 -0.100000  0.100000  0.300000      2.000000
  0.000000  0.200000  0.300000      2.000000
  0.100000  0.200000  0.300000      2.000000
  0.200000  0.200000  0.300000      2.000000
  0.300000  0.200000  0.300000      2.000000
  0.400000  0.200000  0.300000      2.000000
  0.500000  0.200000  0.300000      2.000000
 -0.400000  0.200000  0.300000      2.000000
 -0.300000  0.200000  0.300000      2.000000
 -0.200000  0.200000  0.300000      2.000000
 -0.100000  0.200000  0.300000      2.000000
  0.000000  0.300000  0.300000      2.000000
  0.100000  0.300000  0.300000      2.000000
  0.200000  0.300000  0.300000      2.000000
  0.300000  0.300000  0.300000      2.000000
  0.400000  0.300000  0.300000      2.000000
  0.500000  0.300000  0.300000      2.000000
 -0.400000  0.300000  0.300000      2.000000
 -0.300000  0.300000  0.300000      2.000000
 -0.200000  0.300000  0.300000      2.000000
 -0.100000  0.300000  0.300000      2.000000
  0.000000  0.400000  0.300000      2.000000
  0.100000  0.400000  0.300000      2.000000
  0.200000  0.400000  0.300000      2.000000
  0.300000  0.400000  0.300000      2.000000
  0.400000  0.400000  0.300000      2.000000
  0.500000  0.400000  0.300000      2.000000
 -0.400000  0.400000  0.300000      2.000000
 -0.300000  0.400000  0.300000      2.000000
 -0.200000  0.400000  0.300000      2.000000
 -0.100000  0.400000  0.300000      2.000000
  0.000000  0.500000  0.300000      2.000000
  0.100000  0.500000  0.300000      2.000000
  0.200000  0.500000  0.300000      2.000000
  0.300000  0.500000  0.300000      2.000000
  0.400000  0.500000  0.300000      2.000000
  0.500000  0.500000  0.300000      2.000000
 -0.400000  0.500000  0.300000      2.000000
 -0.300000  0.500000  0.300000      2.000000
 -0.200000  0.500000  0.300000      2.000000
 -0.100000  0.500000  0.300000      2.000000
  0.000000 -0.400000  0.300000      2.000000
  0.100000 -0.400000  0.300000      2.000000
  0.200000 -0.400000  0.300000      2.000000
  0.300000 -0.400000  0.300000      2.000000
  0.400000 -0.400000  0.300000      2.000000
  0.500000 -0.400000  0.300000      2.000000
 -0.400000 -0.400000  0.300000      2.000000
 -0.300000 -0.400000  0.300000      2.000000
 -0.200000 -0.400000  0.300000      2.000000
 -0.100000 -0.400000  0.300000      2.000000
  0.000000 -0.300000  0.300000      2.000000
  0.100000 -0.300000  0.300000      2.000000
  0.200000 -0.300000  0.300000      2.000000
  0.300000 -0.300000  0.300000      2.000000
  0.400000 -0.300000  0.300000      2.000000
  0.500000 -0.300000  0.300000      2.000000
 -0.400000 -0.300000  0.300000      2.000000
 -0.300000 -0.300000  0.300000      2.000000
 -0.200000 -0.300000  0.300000      2.000000
 -0.100000 -0.300000  0.300000      2.000000
  0.000000 -0.200000  0.300000      2.000000
  0.100000 -0.200000  0.300000      2.000000
  0.200000 -0.200000  0.300000      2.000000
  0.300000 -0.200000  0.300000      2.000000
  0.400000 -0.200000  0.300000      2.000000
  0.500000 -0.200000  0.300000      2.000000
 -0.400000 -0.200000  0.300000      2.000000
 -0.300000 -0.200000  0.300000      2.000000
 -0.200000 -0.200000  0.300000      2.000000
 -0.100000 -0.200000  0.300000      2.000000
  0.000000 -0.100000  0.300000      2.000000
  0.100000 -0.100000  0.300000      2.000000
  0.200000 -0.100000  0.300000      2.000000
  0.300000 -0.100000  0.300000      2.000000
  0.400000 -0.100000  0.300000      2.000000
  0.500000 -0.100000  0.300000      2.000000
 -0.400000 -0.100000  0.300000      2.000000
 -0.300000 -0.100000  0.300000      2.000000
 -0.200000 -0.100000  0.300000      2.000000
 -0.100000 -0.100000  0.300000      2.000000
  0.000000  0.000000  0.400000      2.000000
  0.100000  0.000000  0.400000      2.000000
  0.200000  0.000000  0.400000      2.000000
  0.300000  0.000000  0.400000      2.000000
  0.400000  0.000000  0.400000      2.000000
  0.500000  0.000000  0.400000      2.000000
 -0.400000  0.000000  0.400000      2.000000
 -0.300000  0.000000  0.400000      2.000000
 -0.200000  0.000000  0.400000      2.000000
 -0.100000  0.000000  0.400000      2.000000
  0.000000  0.100000  0.400000      2.000000
  0.100000  0.100000  0.400000      2.000000
  0.200000  0.100000  0.400000      2.000000
  0.300000  0.100000  0.400000      2.000000
  0.400000  0.100000  0.400000      2.000000
  0.500000  0.100000  0.400000      2.000000
 -0.400000  0.100000  0.400000      2.000000
 -0.300000  0.100000  0.400000      2.000000
 -0.200000  0.100000  0.400000      2.000000
 -0.100000  0.100000  0.400000      2.000000
  0.000000  0.200000  0.400000      2.000000
  0.100000  0.200000  0.400000      2.000000
  0.200000  0.200000  0.400000      2.000000
  0.300000  0.200000  0.400000      2.000000
  0.400000  0.200000  0.400000      2.000000
  0.500000  0.200000  0.400000      2.000000
 -0.400000  0.200000  0.400000      2.000000
 -0.300000  0.200000  0.400000      2.000000
 -0.200000  0.200000  0.400000      2.000000
 -0.100000  0.200000  0.400000      2.000000
  0.000000  0.300000  0.400000      2.000000
  0.100000  0.300000  0.400000      2.000000
  0.200000  0.300000  0.400000      2.000000
  0.300000  0.300000  0.400000      2.000000
  0.400000  0.300000  0.400000      2.000000
  0.500000  0.300000  0.400000      2.000000
 -0.400000  0.300000  0.400000      2.000000
 -0.300000  0.300000  0.400000      2.000000
 -0.200000  0.300000  0.400000      2.000000
 -0.100000  0.300000  0.400000      2.000000
  0.000000  0.400000  0.400000      2.000000
  0.100000  0.400000  0.400000      2.000000
  0.200000  0.400000  0.400000      2.000000
  0.300000  0.400000  0.400000      2.000000
  0.400000  0.400000  0.400000      2.000000
  0.500000  0.400000  0.400000      2.000000
 -0.400000  0.400000  0.400000      2.000000
 -0.300000  0.400000  0.400000      2.000000
 -0.200000  0.400000  0.400000      2.000000
 -0.100000  0.400000  0.400000      2.000000
  0.000000  0.500000  0.400000      2.000000
  0.100000  0.500000  0.400000      2.000000
  0.200000  0.500000  0.400000      2.000000
  0.300000  0.500000  0.400000      2.000000
  0.400000  0.500000  0.400000      2.000000
  0.500000  0.500000  0.400000      2.000000
 -0.400000  0.500000  0.400000      2.000000
 -0.300000  0.500000  0.400000      2.000000
 -0.200000  0.500000  0.400000      2.000000
 -0.100000  0.500000  0.400000      2.000000
  0.000000 -0.400000  0.400000      2.000000
  0.100000 -0.400000  0.400000      2.000000
  0.200000 -0.400000  0.400000      2.000000
  0.300000 -0.400000  0.400000      2.000000
  0.400000 -0.400000  0.400000      2.000000
  0.500000 -0.400000  0.400000      2.000000
 -0.400000 -0.400000  0.400000      2.000000
 -0.300000 -0.400000  0.400000      2.000000
 -0.200000 -0.400000  0.400000      2.000000
 -0.100000 -0.400000  0.400000      2.000000
  0.000000 -0.300000  0.400000      2.000000
  0.100000 -0.300000  0.400000      2.000000
  0.200000 -0.300000  0.400000      2.000000
  0.300000 -0.300000  0.400000      2.000000
  0.400000 -0.300000  0.400000      2.000000
  0.500000 -0.300000  0.400000      2.000000
 -0.400000 -0.300000  0.400000      2.000000
 -0.300000 -0.300000  0.400000      2.000000
 -0.200000 -0.300000  0.400000      2.000000
 -0.100000 -0.300000  0.400000      2.000000
  0.000000 -0.200000  0.400000      2.000000
  0.100000 -0.200000  0.400000      2.000000
  0.200000 -0.200000  0.400000      2.000000
  0.300000 -0.200000  0.400000      2.000000
  0.400000 -0.200000  0.400000      2.000000
  0.500000 -0.200000  0.400000      2.000000
 -0.400000 -0.200000  0.400000      2.000000
 -0.300000 -0.200000  0.400000      2.000000
 -0.200000 -0.200000  0.400000      2.000000
 -0.100000 -0.200000  0.400000      2.000000
  0.000000 -0.100000  0.400000      2.000000
  0.100000 -0.100000  0.400000      2.000000
  0.200000 -0.100000  0.400000      2.000000
  0.300000 -0.100000  0.400000      2.000000
  0.400000 -0.100000  0.400000      2.000000
  0.500000 -0.100000  0.400000      2.000000
 -0.400000 -0.100000  0.400000      2.000000
 -0.300000 -0.100000  0.400000      2.000000
 -0.200000 -0.100000  0.400000      2.000000
 -0.100000 -0.100000  0.400000      2.000000
  0.000000  0.000000  0.500000      1.000000
  0.100000  0.000000  0.500000      2.000000
  0.200000  0.000000  0.500000      2.000000
  0.300000  0.000000  0.500000      2.000000
  0.400000  0.000000  0.500000      2.000000
  0.500000  0.000000  0.500000      1.000000
  0.000000  0.100000  0.500000      2.000000
  0.100000  0.100000  0.500000      2.000000
  0.200000  0.100000  0.500000      2.000000
  0.300000  0.100000  0.500000      2.000000
  0.400000  0.100000  0.500000      2.000000
  0.500000  0.100000  0.500000      2.000000
 -0.400000  0.100000  0.500000      2.000000
 -0.300000  0.100000  0.500000      2.000000
 -0.200000  0.100000  0.500000      2.000000
 -0.100000  0.100000  0.500000      2.000000
  0.000000  0.200000  0.500000      2.000000
  0.100000  0.200000  0.500000      2.000000
  0.200000  0.200000  0.500000      2.000000
  0.300000  0.200000  0.500000      2.000000
  0.400000  0.200000  0.500000      2.000000
  0.500000  0.200000  0.500000      2.000000
 -0.400000  0.200000  0.500000      2.000000
 -0.300000  0.200000  0.500000      2.000000
 -0.200000  0.200000  0.500000      2.000000
 -0.100000  0.200000  0.500000      2.000000
  0.000000  0.300000  0.500000      2.000000
  0.100000  0.300000  0.500000      2.000000
  0.200000  0.300000  0.500000      2.000000
  0.300000  0.300000  0.500000      2.000000
  0.400000  0.300000  0.500000      2.000000
  0.500000  0.300000  0.500000      2.000000
 -0.400000  0.300000  0.500000      2.000000
 -0.300000  0.300000  0.500000      2.000000
 -0.200000  0.300000  0.500000      2.000000
 -0.100000  0.300000  0.500000      2.000000
  0.000000  0.400000  0.500000      2.000000
  0.100000  0.400000  0.500000      2.000000
  0.200000  0.400000  0.500000      2.000000
  0.300000  0.400000  0.500000      2.000000
  0.400000  0.400000  0.500000      2.000000
  0.500000  0.400000  0.500000      2.000000
 -0.400000  0.400000  0.500000      2.000000
 -0.300000  0.400000  0.500000      2.000000
 -0.200000  0.400000  0.500000      2.000000
 -0.100000  0.400000  0.500000      2.000000
  0.000000  0.500000  0.500000      1.000000
  0.100000  0.500000  0.500000      2.000000
  0.200000  0.500000  0.500000      2.000000
  0.300000  0.500000  0.500000      2.000000
  0.400000  0.500000  0.500000      2.000000
  0.500000  0.500000  0.500000      1.000000
 
 Following cartesian coordinates:
            Coordinates               Weight
  0.000000  0.000000  0.000000      1.000000
  0.010189  0.000000  0.000000      2.000000
  0.020377  0.000000  0.000000      2.000000
  0.030566  0.000000  0.000000      2.000000
  0.040754  0.000000  0.000000      2.000000
  0.050943  0.000000  0.000000      1.000000
  0.000000  0.010189  0.000000      2.000000
  0.010189  0.010189  0.000000      2.000000
  0.020377  0.010189  0.000000      2.000000
  0.030566  0.010189  0.000000      2.000000
  0.040754  0.010189  0.000000      2.000000
  0.050943  0.010189  0.000000      2.000000
 -0.040754  0.010189  0.000000      2.000000
 -0.030566  0.010189  0.000000      2.000000
 -0.020377  0.010189  0.000000      2.000000
 -0.010189  0.010189  0.000000      2.000000
  0.000000  0.020377  0.000000      2.000000
  0.010189  0.020377  0.000000      2.000000
  0.020377  0.020377  0.000000      2.000000
  0.030566  0.020377  0.000000      2.000000
  0.040754  0.020377  0.000000      2.000000
  0.050943  0.020377  0.000000      2.000000
 -0.040754  0.020377  0.000000      2.000000
 -0.030566  0.020377  0.000000      2.000000
 -0.020377  0.020377  0.000000      2.000000
 -0.010189  0.020377  0.000000      2.000000
  0.000000  0.030566  0.000000      2.000000
  0.010189  0.030566  0.000000      2.000000
  0.020377  0.030566  0.000000      2.000000
  0.030566  0.030566  0.000000      2.000000
  0.040754  0.030566  0.000000      2.000000
  0.050943  0.030566  0.000000      2.000000
 -0.040754  0.030566  0.000000      2.000000
 -0.030566  0.030566  0.000000      2.000000
 -0.020377  0.030566  0.000000      2.000000
 -0.010189  0.030566  0.000000      2.000000
  0.000000  0.040754  0.000000      2.000000
  0.010189  0.040754  0.000000      2.000000
  0.020377  0.040754  0.000000      2.000000
  0.030566  0.040754  0.000000      2.000000
  0.040754  0.040754  0.000000      2.000000
  0.050943  0.040754  0.000000      2.000000
 -0.040754  0.040754  0.000000      2.000000
 -0.030566  0.040754  0.000000      2.000000
 -0.020377  0.040754  0.000000      2.000000
 -0.010189  0.040754  0.000000      2.000000
  0.000000  0.050943  0.000000      1.000000
  0.010189  0.050943  0.000000      2.000000
  0.020377  0.050943  0.000000      2.000000
  0.030566  0.050943  0.000000      2.000000
  0.040754  0.050943  0.000000      2.000000
  0.050943  0.050943  0.000000      1.000000
  0.000000  0.000000  0.010189      2.000000
  0.010189  0.000000  0.010189      2.000000
  0.020377  0.000000  0.010189      2.000000
  0.030566  0.000000  0.010189      2.000000
  0.040754  0.000000  0.010189      2.000000
  0.050943  0.000000  0.010189      2.000000
 -0.040754  0.000000  0.010189      2.000000
 -0.030566  0.000000  0.010189      2.000000
 -0.020377  0.000000  0.010189      2.000000
 -0.010189  0.000000  0.010189      2.000000
  0.000000  0.010189  0.010189      2.000000
  0.010189  0.010189  0.010189      2.000000
  0.020377  0.010189  0.010189      2.000000
  0.030566  0.010189  0.010189      2.000000
  0.040754  0.010189  0.010189      2.000000
  0.050943  0.010189  0.010189      2.000000
 -0.040754  0.010189  0.010189      2.000000
 -0.030566  0.010189  0.010189      2.000000
 -0.020377  0.010189  0.010189      2.000000
 -0.010189  0.010189  0.010189      2.000000
  0.000000  0.020377  0.010189      2.000000
  0.010189  0.020377  0.010189      2.000000
  0.020377  0.020377  0.010189      2.000000
  0.030566  0.020377  0.010189      2.000000
  0.040754  0.020377  0.010189      2.000000
  0.050943  0.020377  0.010189      2.000000
 -0.040754  0.020377  0.010189      2.000000
 -0.030566  0.020377  0.010189      2.000000
 -0.020377  0.020377  0.010189      2.000000
 -0.010189  0.020377  0.010189      2.000000
  0.000000  0.030566  0.010189      2.000000
  0.010189  0.030566  0.010189      2.000000
  0.020377  0.030566  0.010189      2.000000
  0.030566  0.030566  0.010189      2.000000
  0.040754  0.030566  0.010189      2.000000
  0.050943  0.030566  0.010189      2.000000
 -0.040754  0.030566  0.010189      2.000000
 -0.030566  0.030566  0.010189      2.000000
 -0.020377  0.030566  0.010189      2.000000
 -0.010189  0.030566  0.010189      2.000000
  0.000000  0.040754  0.010189      2.000000
  0.010189  0.040754  0.010189      2.000000
  0.020377  0.040754  0.010189      2.000000
  0.030566  0.040754  0.010189      2.000000
  0.040754  0.040754  0.010189      2.000000
  0.050943  0.040754  0.010189      2.000000
 -0.040754  0.040754  0.010189      2.000000
 -0.030566  0.040754  0.010189      2.000000
 -0.020377  0.040754  0.010189      2.000000
 -0.010189  0.040754  0.010189      2.000000
  0.000000  0.050943  0.010189      2.000000
  0.010189  0.050943  0.010189      2.000000
  0.020377  0.050943  0.010189      2.000000
  0.030566  0.050943  0.010189      2.000000
  0.040754  0.050943  0.010189      2.000000
  0.050943  0.050943  0.010189      2.000000
 -0.040754  0.050943  0.010189      2.000000
 -0.030566  0.050943  0.010189      2.000000
 -0.020377  0.050943  0.010189      2.000000
 -0.010189  0.050943  0.010189      2.000000
  0.000000 -0.040754  0.010189      2.000000
  0.010189 -0.040754  0.010189      2.000000
  0.020377 -0.040754  0.010189      2.000000
  0.030566 -0.040754  0.010189      2.000000
  0.040754 -0.040754  0.010189      2.000000
  0.050943 -0.040754  0.010189      2.000000
 -0.040754 -0.040754  0.010189      2.000000
 -0.030566 -0.040754  0.010189      2.000000
 -0.020377 -0.040754  0.010189      2.000000
 -0.010189 -0.040754  0.010189      2.000000
  0.000000 -0.030566  0.010189      2.000000
  0.010189 -0.030566  0.010189      2.000000
  0.020377 -0.030566  0.010189      2.000000
  0.030566 -0.030566  0.010189      2.000000
  0.040754 -0.030566  0.010189      2.000000
  0.050943 -0.030566  0.010189      2.000000
 -0.040754 -0.030566  0.010189      2.000000
 -0.030566 -0.030566  0.010189      2.000000
 -0.020377 -0.030566  0.010189      2.000000
 -0.010189 -0.030566  0.010189      2.000000
  0.000000 -0.020377  0.010189      2.000000
  0.010189 -0.020377  0.010189      2.000000
  0.020377 -0.020377  0.010189      2.000000
  0.030566 -0.020377  0.010189      2.000000
  0.040754 -0.020377  0.010189      2.000000
  0.050943 -0.020377  0.010189      2.000000
 -0.040754 -0.020377  0.010189      2.000000
 -0.030566 -0.020377  0.010189      2.000000
 -0.020377 -0.020377  0.010189      2.000000
 -0.010189 -0.020377  0.010189      2.000000
  0.000000 -0.010189  0.010189      2.000000
  0.010189 -0.010189  0.010189      2.000000
  0.020377 -0.010189  0.010189      2.000000
  0.030566 -0.010189  0.010189      2.000000
  0.040754 -0.010189  0.010189      2.000000
  0.050943 -0.010189  0.010189      2.000000
 -0.040754 -0.010189  0.010189      2.000000
 -0.030566 -0.010189  0.010189      2.000000
 -0.020377 -0.010189  0.010189      2.000000
 -0.010189 -0.010189  0.010189      2.000000
  0.000000  0.000000  0.020377      2.000000
  0.010189  0.000000  0.020377      2.000000
  0.020377  0.000000  0.020377      2.000000
  0.030566  0.000000  0.020377      2.000000
  0.040754  0.000000  0.020377      2.000000
  0.050943  0.000000  0.020377      2.000000
 -0.040754  0.000000  0.020377      2.000000
 -0.030566  0.000000  0.020377      2.000000
 -0.020377  0.000000  0.020377      2.000000
 -0.010189  0.000000  0.020377      2.000000
  0.000000  0.010189  0.020377      2.000000
  0.010189  0.010189  0.020377      2.000000
  0.020377  0.010189  0.020377      2.000000
  0.030566  0.010189  0.020377      2.000000
  0.040754  0.010189  0.020377      2.000000
  0.050943  0.010189  0.020377      2.000000
 -0.040754  0.010189  0.020377      2.000000
 -0.030566  0.010189  0.020377      2.000000
 -0.020377  0.010189  0.020377      2.000000
 -0.010189  0.010189  0.020377      2.000000
  0.000000  0.020377  0.020377      2.000000
  0.010189  0.020377  0.020377      2.000000
  0.020377  0.020377  0.020377      2.000000
  0.030566  0.020377  0.020377      2.000000
  0.040754  0.020377  0.020377      2.000000
  0.050943  0.020377  0.020377      2.000000
 -0.040754  0.020377  0.020377      2.000000
 -0.030566  0.020377  0.020377      2.000000
 -0.020377  0.020377  0.020377      2.000000
 -0.010189  0.020377  0.020377      2.000000
  0.000000  0.030566  0.020377      2.000000
  0.010189  0.030566  0.020377      2.000000
  0.020377  0.030566  0.020377      2.000000
  0.030566  0.030566  0.020377      2.000000
  0.040754  0.030566  0.020377      2.000000
  0.050943  0.030566  0.020377      2.000000
 -0.040754  0.030566  0.020377      2.000000
 -0.030566  0.030566  0.020377      2.000000
 -0.020377  0.030566  0.020377      2.000000
 -0.010189  0.030566  0.020377      2.000000
  0.000000  0.040754  0.020377      2.000000
  0.010189  0.040754  0.020377      2.000000
  0.020377  0.040754  0.020377      2.000000
  0.030566  0.040754  0.020377      2.000000
  0.040754  0.040754  0.020377      2.000000
  0.050943  0.040754  0.020377      2.000000
 -0.040754  0.040754  0.020377      2.000000
 -0.030566  0.040754  0.020377      2.000000
 -0.020377  0.040754  0.020377      2.000000
 -0.010189  0.040754  0.020377      2.000000
  0.000000  0.050943  0.020377      2.000000
  0.010189  0.050943  0.020377      2.000000
  0.020377  0.050943  0.020377      2.000000
  0.030566  0.050943  0.020377      2.000000
  0.040754  0.050943  0.020377      2.000000
  0.050943  0.050943  0.020377      2.000000
 -0.040754  0.050943  0.020377      2.000000
 -0.030566  0.050943  0.020377      2.000000
 -0.020377  0.050943  0.020377      2.000000
 -0.010189  0.050943  0.020377      2.000000
  0.000000 -0.040754  0.020377      2.000000
  0.010189 -0.040754  0.020377      2.000000
  0.020377 -0.040754  0.020377      2.000000
  0.030566 -0.040754  0.020377      2.000000
  0.040754 -0.040754  0.020377      2.000000
  0.050943 -0.040754  0.020377      2.000000
 -0.040754 -0.040754  0.020377      2.000000
 -0.030566 -0.040754  0.020377      2.000000
 -0.020377 -0.040754  0.020377      2.000000
 -0.010189 -0.040754  0.020377      2.000000
  0.000000 -0.030566  0.020377      2.000000
  0.010189 -0.030566  0.020377      2.000000
  0.020377 -0.030566  0.020377      2.000000
  0.030566 -0.030566  0.020377      2.000000
  0.040754 -0.030566  0.020377      2.000000
  0.050943 -0.030566  0.020377      2.000000
 -0.040754 -0.030566  0.020377      2.000000
 -0.030566 -0.030566  0.020377      2.000000
 -0.020377 -0.030566  0.020377      2.000000
 -0.010189 -0.030566  0.020377      2.000000
  0.000000 -0.020377  0.020377      2.000000
  0.010189 -0.020377  0.020377      2.000000
  0.020377 -0.020377  0.020377      2.000000
  0.030566 -0.020377  0.020377      2.000000
  0.040754 -0.020377  0.020377      2.000000
  0.050943 -0.020377  0.020377      2.000000
 -0.040754 -0.020377  0.020377      2.000000
 -0.030566 -0.020377  0.020377      2.000000
 -0.020377 -0.020377  0.020377      2.000000
 -0.010189 -0.020377  0.020377      2.000000
  0.000000 -0.010189  0.020377      2.000000
  0.010189 -0.010189  0.020377      2.000000
  0.020377 -0.010189  0.020377      2.000000
  0.030566 -0.010189  0.020377      2.000000
  0.040754 -0.010189  0.020377      2.000000
  0.050943 -0.010189  0.020377      2.000000
 -0.040754 -0.010189  0.020377      2.000000
 -0.030566 -0.010189  0.020377      2.000000
 -0.020377 -0.010189  0.020377      2.000000
 -0.010189 -0.010189  0.020377      2.000000
  0.000000  0.000000  0.030566      2.000000
  0.010189  0.000000  0.030566      2.000000
  0.020377  0.000000  0.030566      2.000000
  0.030566  0.000000  0.030566      2.000000
  0.040754  0.000000  0.030566      2.000000
  0.050943  0.000000  0.030566      2.000000
 -0.040754  0.000000  0.030566      2.000000
 -0.030566  0.000000  0.030566      2.000000
 -0.020377  0.000000  0.030566      2.000000
 -0.010189  0.000000  0.030566      2.000000
  0.000000  0.010189  0.030566      2.000000
  0.010189  0.010189  0.030566      2.000000
  0.020377  0.010189  0.030566      2.000000
  0.030566  0.010189  0.030566      2.000000
  0.040754  0.010189  0.030566      2.000000
  0.050943  0.010189  0.030566      2.000000
 -0.040754  0.010189  0.030566      2.000000
 -0.030566  0.010189  0.030566      2.000000
 -0.020377  0.010189  0.030566      2.000000
 -0.010189  0.010189  0.030566      2.000000
  0.000000  0.020377  0.030566      2.000000
  0.010189  0.020377  0.030566      2.000000
  0.020377  0.020377  0.030566      2.000000
  0.030566  0.020377  0.030566      2.000000
  0.040754  0.020377  0.030566      2.000000
  0.050943  0.020377  0.030566      2.000000
 -0.040754  0.020377  0.030566      2.000000
 -0.030566  0.020377  0.030566      2.000000
 -0.020377  0.020377  0.030566      2.000000
 -0.010189  0.020377  0.030566      2.000000
  0.000000  0.030566  0.030566      2.000000
  0.010189  0.030566  0.030566      2.000000
  0.020377  0.030566  0.030566      2.000000
  0.030566  0.030566  0.030566      2.000000
  0.040754  0.030566  0.030566      2.000000
  0.050943  0.030566  0.030566      2.000000
 -0.040754  0.030566  0.030566      2.000000
 -0.030566  0.030566  0.030566      2.000000
 -0.020377  0.030566  0.030566      2.000000
 -0.010189  0.030566  0.030566      2.000000
  0.000000  0.040754  0.030566      2.000000
  0.010189  0.040754  0.030566      2.000000
  0.020377  0.040754  0.030566      2.000000
  0.030566  0.040754  0.030566      2.000000
  0.040754  0.040754  0.030566      2.000000
  0.050943  0.040754  0.030566      2.000000
 -0.040754  0.040754  0.030566      2.000000
 -0.030566  0.040754  0.030566      2.000000
 -0.020377  0.040754  0.030566      2.000000
 -0.010189  0.040754  0.030566      2.000000
  0.000000  0.050943  0.030566      2.000000
  0.010189  0.050943  0.030566      2.000000
  0.020377  0.050943  0.030566      2.000000
  0.030566  0.050943  0.030566      2.000000
  0.040754  0.050943  0.030566      2.000000
  0.050943  0.050943  0.030566      2.000000
 -0.040754  0.050943  0.030566      2.000000
 -0.030566  0.050943  0.030566      2.000000
 -0.020377  0.050943  0.030566      2.000000
 -0.010189  0.050943  0.030566      2.000000
  0.000000 -0.040754  0.030566      2.000000
  0.010189 -0.040754  0.030566      2.000000
  0.020377 -0.040754  0.030566      2.000000
  0.030566 -0.040754  0.030566      2.000000
  0.040754 -0.040754  0.030566      2.000000
  0.050943 -0.040754  0.030566      2.000000
 -0.040754 -0.040754  0.030566      2.000000
 -0.030566 -0.040754  0.030566      2.000000
 -0.020377 -0.040754  0.030566      2.000000
 -0.010189 -0.040754  0.030566      2.000000
  0.000000 -0.030566  0.030566      2.000000
  0.010189 -0.030566  0.030566      2.000000
  0.020377 -0.030566  0.030566      2.000000
  0.030566 -0.030566  0.030566      2.000000
  0.040754 -0.030566  0.030566      2.000000
  0.050943 -0.030566  0.030566      2.000000
 -0.040754 -0.030566  0.030566      2.000000
 -0.030566 -0.030566  0.030566      2.000000
 -0.020377 -0.030566  0.030566      2.000000
 -0.010189 -0.030566  0.030566      2.000000
  0.000000 -0.020377  0.030566      2.000000
  0.010189 -0.020377  0.030566      2.000000
  0.020377 -0.020377  0.030566      2.000000
  0.030566 -0.020377  0.030566      2.000000
  0.040754 -0.020377  0.030566      2.000000
  0.050943 -0.020377  0.030566      2.000000
 -0.040754 -0.020377  0.030566      2.000000
 -0.030566 -0.020377  0.030566      2.000000
 -0.020377 -0.020377  0.030566      2.000000
 -0.010189 -0.020377  0.030566      2.000000
  0.000000 -0.010189  0.030566      2.000000
  0.010189 -0.010189  0.030566      2.000000
  0.020377 -0.010189  0.030566      2.000000
  0.030566 -0.010189  0.030566      2.000000
  0.040754 -0.010189  0.030566      2.000000
  0.050943 -0.010189  0.030566      2.000000
 -0.040754 -0.010189  0.030566      2.000000
 -0.030566 -0.010189  0.030566      2.000000
 -0.020377 -0.010189  0.030566      2.000000
 -0.010189 -0.010189  0.030566      2.000000
  0.000000  0.000000  0.040754      2.000000
  0.010189  0.000000  0.040754      2.000000
  0.020377  0.000000  0.040754      2.000000
  0.030566  0.000000  0.040754      2.000000
  0.040754  0.000000  0.040754      2.000000
  0.050943  0.000000  0.040754      2.000000
 -0.040754  0.000000  0.040754      2.000000
 -0.030566  0.000000  0.040754      2.000000
 -0.020377  0.000000  0.040754      2.000000
 -0.010189  0.000000  0.040754      2.000000
  0.000000  0.010189  0.040754      2.000000
  0.010189  0.010189  0.040754      2.000000
  0.020377  0.010189  0.040754      2.000000
  0.030566  0.010189  0.040754      2.000000
  0.040754  0.010189  0.040754      2.000000
  0.050943  0.010189  0.040754      2.000000
 -0.040754  0.010189  0.040754      2.000000
 -0.030566  0.010189  0.040754      2.000000
 -0.020377  0.010189  0.040754      2.000000
 -0.010189  0.010189  0.040754      2.000000
  0.000000  0.020377  0.040754      2.000000
  0.010189  0.020377  0.040754      2.000000
  0.020377  0.020377  0.040754      2.000000
  0.030566  0.020377  0.040754      2.000000
  0.040754  0.020377  0.040754      2.000000
  0.050943  0.020377  0.040754      2.000000
 -0.040754  0.020377  0.040754      2.000000
 -0.030566  0.020377  0.040754      2.000000
 -0.020377  0.020377  0.040754      2.000000
 -0.010189  0.020377  0.040754      2.000000
  0.000000  0.030566  0.040754      2.000000
  0.010189  0.030566  0.040754      2.000000
  0.020377  0.030566  0.040754      2.000000
  0.030566  0.030566  0.040754      2.000000
  0.040754  0.030566  0.040754      2.000000
  0.050943  0.030566  0.040754      2.000000
 -0.040754  0.030566  0.040754      2.000000
 -0.030566  0.030566  0.040754      2.000000
 -0.020377  0.030566  0.040754      2.000000
 -0.010189  0.030566  0.040754      2.000000
  0.000000  0.040754  0.040754      2.000000
  0.010189  0.040754  0.040754      2.000000
  0.020377  0.040754  0.040754      2.000000
  0.030566  0.040754  0.040754      2.000000
  0.040754  0.040754  0.040754      2.000000
  0.050943  0.040754  0.040754      2.000000
 -0.040754  0.040754  0.040754      2.000000
 -0.030566  0.040754  0.040754      2.000000
 -0.020377  0.040754  0.040754      2.000000
 -0.010189  0.040754  0.040754      2.000000
  0.000000  0.050943  0.040754      2.000000
  0.010189  0.050943  0.040754      2.000000
  0.020377  0.050943  0.040754      2.000000
  0.030566  0.050943  0.040754      2.000000
  0.040754  0.050943  0.040754      2.000000
  0.050943  0.050943  0.040754      2.000000
 -0.040754  0.050943  0.040754      2.000000
 -0.030566  0.050943  0.040754      2.000000
 -0.020377  0.050943  0.040754      2.000000
 -0.010189  0.050943  0.040754      2.000000
  0.000000 -0.040754  0.040754      2.000000
  0.010189 -0.040754  0.040754      2.000000
  0.020377 -0.040754  0.040754      2.000000
  0.030566 -0.040754  0.040754      2.000000
  0.040754 -0.040754  0.040754      2.000000
  0.050943 -0.040754  0.040754      2.000000
 -0.040754 -0.040754  0.040754      2.000000
 -0.030566 -0.040754  0.040754      2.000000
 -0.020377 -0.040754  0.040754      2.000000
 -0.010189 -0.040754  0.040754      2.000000
  0.000000 -0.030566  0.040754      2.000000
  0.010189 -0.030566  0.040754      2.000000
  0.020377 -0.030566  0.040754      2.000000
  0.030566 -0.030566  0.040754      2.000000
  0.040754 -0.030566  0.040754      2.000000
  0.050943 -0.030566  0.040754      2.000000
 -0.040754 -0.030566  0.040754      2.000000
 -0.030566 -0.030566  0.040754      2.000000
 -0.020377 -0.030566  0.040754      2.000000
 -0.010189 -0.030566  0.040754      2.000000
  0.000000 -0.020377  0.040754      2.000000
  0.010189 -0.020377  0.040754      2.000000
  0.020377 -0.020377  0.040754      2.000000
  0.030566 -0.020377  0.040754      2.000000
  0.040754 -0.020377  0.040754      2.000000
  0.050943 -0.020377  0.040754      2.000000
 -0.040754 -0.020377  0.040754      2.000000
 -0.030566 -0.020377  0.040754      2.000000
 -0.020377 -0.020377  0.040754      2.000000
 -0.010189 -0.020377  0.040754      2.000000
  0.000000 -0.010189  0.040754      2.000000
  0.010189 -0.010189  0.040754      2.000000
  0.020377 -0.010189  0.040754      2.000000
  0.030566 -0.010189  0.040754      2.000000
  0.040754 -0.010189  0.040754      2.000000
  0.050943 -0.010189  0.040754      2.000000
 -0.040754 -0.010189  0.040754      2.000000
 -0.030566 -0.010189  0.040754      2.000000
 -0.020377 -0.010189  0.040754      2.000000
 -0.010189 -0.010189  0.040754      2.000000
  0.000000  0.000000  0.050943      1.000000
  0.010189  0.000000  0.050943      2.000000
  0.020377  0.000000  0.050943      2.000000
  0.030566  0.000000  0.050943      2.000000
  0.040754  0.000000  0.050943      2.000000
  0.050943  0.000000  0.050943      1.000000
  0.000000  0.010189  0.050943      2.000000
  0.010189  0.010189  0.050943      2.000000
  0.020377  0.010189  0.050943      2.000000
  0.030566  0.010189  0.050943      2.000000
  0.040754  0.010189  0.050943      2.000000
  0.050943  0.010189  0.050943      2.000000
 -0.040754  0.010189  0.050943      2.000000
 -0.030566  0.010189  0.050943      2.000000
 -0.020377  0.010189  0.050943      2.000000
 -0.010189  0.010189  0.050943      2.000000
  0.000000  0.020377  0.050943      2.000000
  0.010189  0.020377  0.050943      2.000000
  0.020377  0.020377  0.050943      2.000000
  0.030566  0.020377  0.050943      2.000000
  0.040754  0.020377  0.050943      2.000000
  0.050943  0.020377  0.050943      2.000000
 -0.040754  0.020377  0.050943      2.000000
 -0.030566  0.020377  0.050943      2.000000
 -0.020377  0.020377  0.050943      2.000000
 -0.010189  0.020377  0.050943      2.000000
  0.000000  0.030566  0.050943      2.000000
  0.010189  0.030566  0.050943      2.000000
  0.020377  0.030566  0.050943      2.000000
  0.030566  0.030566  0.050943      2.000000
  0.040754  0.030566  0.050943      2.000000
  0.050943  0.030566  0.050943      2.000000
 -0.040754  0.030566  0.050943      2.000000
 -0.030566  0.030566  0.050943      2.000000
 -0.020377  0.030566  0.050943      2.000000
 -0.010189  0.030566  0.050943      2.000000
  0.000000  0.040754  0.050943      2.000000
  0.010189  0.040754  0.050943      2.000000
  0.020377  0.040754  0.050943      2.000000
  0.030566  0.040754  0.050943      2.000000
  0.040754  0.040754  0.050943      2.000000
  0.050943  0.040754  0.050943      2.000000
 -0.040754  0.040754  0.050943      2.000000
 -0.030566  0.040754  0.050943      2.000000
 -0.020377  0.040754  0.050943      2.000000
 -0.010189  0.040754  0.050943      2.000000
  0.000000  0.050943  0.050943      1.000000
  0.010189  0.050943  0.050943      2.000000
  0.020377  0.050943  0.050943      2.000000
  0.030566  0.050943  0.050943      2.000000
  0.040754  0.050943  0.050943      2.000000
  0.050943  0.050943  0.050943      1.000000
 


--------------------------------------------------------------------------------------------------------




 Dimension of arrays:
   k-points           NKPTS =    504   k-points in BZ     NKDIM =    504   number of bands    NBANDS=    172
   number of dos      NEDOS =    301   number of ions     NIONS =     93
   non local maximal  LDIM  =      4   non local SUM 2l+1 LMDIM =      8
   total plane-waves  NPLWV = 110592
   max r-space proj   IRMAX =   1339   max aug-charges    IRDMAX=   1717
   dimension x,y,z NGX =    48 NGY =   48 NGZ =   48
   dimension x,y,z NGXF=    96 NGYF=   96 NGZF=   96
   support grid    NGXF=    96 NGYF=   96 NGZF=   96
   ions per type =              31  62
   NGX,Y,Z   is equivalent  to a cutoff of   8.13,  8.13,  8.13 a.u.
   NGXF,Y,Z  is equivalent  to a cutoff of  16.26, 16.26, 16.26 a.u.

 SYSTEM =  ice                                     
 POSCAR =  # 4                                     

 Startparameter for this run:
   NWRITE =      0    write-flag & timer
   PREC   = normal    normal or accurate (medium, high low for compatibility)
   ISTART =      0    job   : 0-new  1-cont  2-samecut
   ICHARG =      1    charge: 1-file 2-atom 10-const
   ISPIN  =      1    spin polarized calculation?
   LNONCOLLINEAR =      F non collinear calculations
   LSORBIT =      F    spin-orbit coupling
   INIWAV =      1    electr: 0-lowe 1-rand  2-diag
   LASPH  =      F    aspherical Exc in radial PAW
   METAGGA=      F    non-selfconsistent MetaGGA calc.

 Electronic Relaxation 1
   ENCUT  =  400.0 eV  29.40 Ry    5.42 a.u.  16.01 16.01 16.01*2*pi/ulx,y,z
   ENINI  =  400.0     initial cutoff
   ENAUG  =  605.4 eV  augmentation charge cutoff
   NELM   =    500;   NELMIN=  4; NELMDL=  0     # of ELM steps 
   EDIFF  = 0.1E-05   stopping-criterion for ELM
   LREAL  =      T    real-space projection
   NLSPLINE    = F    spline interpolate recip. space projectors
   LCOMPAT=      F    compatible to vasp.4.4
   GGA_COMPAT  = T    GGA compatible to vasp.4.4-vasp.4.6
   LMAXPAW     = -100 max onsite density
   LMAXMIX     =    2 max onsite mixed and CHGCAR
   VOSKOWN=      0    Vosko Wilk Nusair interpolation
   ROPT   =   -0.00050  -0.00050
 Ionic relaxation
   EDIFFG = 0.1E-04   stopping-criterion for IOM
   NSW    =      0    number of steps for IOM
   NBLOCK =      1;   KBLOCK =      1    inner block; outer block 
   IBRION =     -1    ionic relax: 0-MD 1-quasi-New 2-CG
   NFREE  =      0    steps in history (QN), initial steepest desc. (CG)
   ISIF   =      2    stress and relaxation
   IWAVPR =     10    prediction:  0-non 1-charg 2-wave 3-comb
   ISYM   =      2    0-nonsym 1-usesym 2-fastsym
   LCORR  =      T    Harris-Foulkes like correction to forces

   POTIM  = 0.5000    time-step for ionic-motion
   TEIN   =    0.0    initial temperature
   TEBEG  =    0.0;   TEEND  =   0.0 temperature during run
   SMASS  =  -3.00    Nose mass-parameter (am)
   estimated Nose-frequenzy (Omega)   =  0.10E-29 period in steps =****** mass=  -0.220E-26a.u.
   SCALEE = 1.0000    scale energy and forces
   NPACO  =    256;   APACO  = 16.0  distance and # of slots for P.C.
   PSTRESS=    0.0 pullay stress

  Mass of Ions in am
   POMASS =  16.00  1.00
  Ionic Valenz
   ZVAL   =   6.00  1.00
  Atomic Wigner-Seitz radii
   RWIGS  =  -1.00 -1.00
  virtual crystal weights 
   VCA    =   1.00  1.00
   NELECT =     248.0000    total number of electrons
   NUPDOWN=      -1.0000    fix difference up-down

 DOS related values:
   EMIN   =  10.00;   EMAX   =-10.00  energy-range for DOS
   EFERMI =   0.00
   ISMEAR =    -1;   SIGMA  =   0.05  broadening in eV -4-tet -1-fermi 0-gaus

 Electronic relaxation 2 (details)
   IALGO  =     48    algorithm
   LDIAG  =      T    sub-space diagonalisation (order eigenvalues)
   LSUBROT=      F    optimize rotation matrix (better conditioning)
   TURBO    =      0    0=normal 1=particle mesh
   IRESTART =      0    0=no restart 2=restart with 2 vectors
   NREBOOT  =      0    no. of reboots
   NMIN     =      0    reboot dimension
   EREF     =   0.00    reference energy to select bands
   IMIX   =      4    mixing-type and parameters
     AMIX     =   0.40;   BMIX     =  1.00
     AMIX_MAG =   1.60;   BMIX_MAG =  1.00
     AMIN     =   0.10
     WC   =   100.;   INIMIX=   1;  MIXPRE=   1;  MAXMIX=  40

 Intra band minimization:
   WEIMIN = 0.0000     energy-eigenvalue tresh-hold
   EBREAK =  0.15E-08  absolut break condition
   DEPER  =   0.30     relativ break condition  

   TIME   =   0.40     timestep for ELM

  volume/ion in A,a.u.               =      10.17        68.61
  Fermi-wavevector in a.u.,A,eV,Ry     =   1.047947  1.980334 14.941835  1.098194
  Thomas-Fermi vector in A             =   2.182849
 
 Write flags
   LWAVE        =      F    write WAVECAR
   LDOWNSAMPLE  =      F    k-point downsampling of WAVECAR
   LCHARG       =      F    write CHGCAR
   LVTOT        =      F    write LOCPOT, total local potential
   LVHAR        =      T    write LOCPOT, Hartree potential only
   LELF         =      F    write electronic localiz. function (ELF)
   LORBIT       =      0    0 simple, 1 ext, 2 COOP (PROOUT), +10 PAW based schemes


 Dipole corrections
   LMONO  =      F    monopole corrections only (constant potential shift)
   LDIPOL =      F    correct potential (dipole corrections)
   IDIPOL =      0    1-x, 2-y, 3-z, 4-all directions 
   EPSILON=  1.0000000 bulk dielectric constant

 Exchange correlation treatment:
   GGA     =    --    GGA type
   LEXCH   =     8    internal setting for exchange type
   VOSKOWN=      0    Vosko Wilk Nusair interpolation
   LHFCALC =     F    Hartree Fock is set to
   LHFONE  =     F    Hartree Fock one center treatment
   AEXX    =    0.0000 exact exchange contribution

 Linear response parameters
   LEPSILON=     F    determine dielectric tensor
   LRPA    =     F    only Hartree local field effects (RPA)
   LNABLA  =     F    use nabla operator in PAW spheres
   LVEL    =     F    velocity operator in full k-point grid
   LINTERFAST=   F  fast interpolation
   KINTER  =     0    interpolate to denser k-point grid
   CSHIFT  =0.1000    complex shift for real part using Kramers Kronig
   OMEGAMAX=  -1.0    maximum frequency
   DEG_THRESHOLD= 0.2000000E-02 threshold for treating states as degnerate
   RTIME   =   -0.100 relaxation time in fs
  (WPLASMAI=    0.000 imaginary part of plasma frequency in eV, 0.658/RTIME)
   DFIELD  = 0.0000000 0.0000000 0.0000000 field for delta impulse in time
 
 Orbital magnetization related:
   ORBITALMAG=     F  switch on orbital magnetization
   LCHIMAG   =     F  perturbation theory with respect to B field
   DQ        =  0.001000  dq finite difference perturbation B field
   LLRAUG    =     F  two centre corrections for induced B field



--------------------------------------------------------------------------------------------------------


 Static calculation
 charge density and potential will be updated during run
 non-spin polarized calculation
 RMM-DIIS sequential band-by-band
 perform sub-space diagonalisation
    before iterative eigenvector-optimisation
 modified Broyden-mixing scheme, WC =      100.0
 initial mixing is a Kerker type mixing with AMIX =  0.4000 and BMIX =      1.0000
 Hartree-type preconditioning will be used
 using additional bands           48
 real space projection scheme for non local part
 use partial core corrections
 calculate Harris-corrections to forces 
   (improved forces if not selfconsistent)
 use gradient corrections 
 use of overlap-Matrix (Vanderbilt PP)
 Fermi-smearing in eV        SIGMA  =   0.05


--------------------------------------------------------------------------------------------------------


  energy-cutoff  :      400.00
  volume of cell :      945.49
      direct lattice vectors                 reciprocal lattice vectors
     9.814900000  0.000000000  0.000000000     0.101885908  0.000000000  0.000000000
     0.000000000  9.814900000  0.000000000     0.000000000  0.101885908  0.000000000
     0.000000000  0.000000000  9.814900000     0.000000000  0.000000000  0.101885908

  length of vectors
     9.814900000  9.814900000  9.814900000     0.101885908  0.101885908  0.101885908


 
 k-points in units of 2pi/SCALE and weight: automatic mesh                          
   0.00000000  0.00000000  0.00000000       0.001
   0.01018859  0.00000000  0.00000000       0.002
   0.02037718  0.00000000  0.00000000       0.002
   0.03056577  0.00000000  0.00000000       0.002
   0.04075436  0.00000000  0.00000000       0.002
   0.05094295  0.00000000  0.00000000       0.001
   0.00000000  0.01018859  0.00000000       0.002
   0.01018859  0.01018859  0.00000000       0.002
   0.02037718  0.01018859  0.00000000       0.002
   0.03056577  0.01018859  0.00000000       0.002
   0.04075436  0.01018859  0.00000000       0.002
   0.05094295  0.01018859  0.00000000       0.002
  -0.04075436  0.01018859  0.00000000       0.002
  -0.03056577  0.01018859  0.00000000       0.002
  -0.02037718  0.01018859  0.00000000       0.002
  -0.01018859  0.01018859  0.00000000       0.002
   0.00000000  0.02037718  0.00000000       0.002
   0.01018859  0.02037718  0.00000000       0.002
   0.02037718  0.02037718  0.00000000       0.002
   0.03056577  0.02037718  0.00000000       0.002
   0.04075436  0.02037718  0.00000000       0.002
   0.05094295  0.02037718  0.00000000       0.002
  -0.04075436  0.02037718  0.00000000       0.002
  -0.03056577  0.02037718  0.00000000       0.002
  -0.02037718  0.02037718  0.00000000       0.002
  -0.01018859  0.02037718  0.00000000       0.002
   0.00000000  0.03056577  0.00000000       0.002
   0.01018859  0.03056577  0.00000000       0.002
   0.02037718  0.03056577  0.00000000       0.002
   0.03056577  0.03056577  0.00000000       0.002
   0.04075436  0.03056577  0.00000000       0.002
   0.05094295  0.03056577  0.00000000       0.002
  -0.04075436  0.03056577  0.00000000       0.002
  -0.03056577  0.03056577  0.00000000       0.002
  -0.02037718  0.03056577  0.00000000       0.002
  -0.01018859  0.03056577  0.00000000       0.002
   0.00000000  0.04075436  0.00000000       0.002
   0.01018859  0.04075436  0.00000000       0.002
   0.02037718  0.04075436  0.00000000       0.002
   0.03056577  0.04075436  0.00000000       0.002
   0.04075436  0.04075436  0.00000000       0.002
   0.05094295  0.04075436  0.00000000       0.002
  -0.04075436  0.04075436  0.00000000       0.002
  -0.03056577  0.04075436  0.00000000       0.002
  -0.02037718  0.04075436  0.00000000       0.002
  -0.01018859  0.04075436  0.00000000       0.002
   0.00000000  0.05094295  0.00000000       0.001
   0.01018859  0.05094295  0.00000000       0.002
   0.02037718  0.05094295  0.00000000       0.002
   0.03056577  0.05094295  0.00000000       0.002
   0.04075436  0.05094295  0.00000000       0.002
   0.05094295  0.05094295  0.00000000       0.001
   0.00000000  0.00000000  0.01018859       0.002
   0.01018859  0.00000000  0.01018859       0.002
   0.02037718  0.00000000  0.01018859       0.002
   0.03056577  0.00000000  0.01018859       0.002
   0.04075436  0.00000000  0.01018859       0.002
   0.05094295  0.00000000  0.01018859       0.002
  -0.04075436  0.00000000  0.01018859       0.002
  -0.03056577  0.00000000  0.01018859       0.002
  -0.02037718  0.00000000  0.01018859       0.002
  -0.01018859  0.00000000  0.01018859       0.002
   0.00000000  0.01018859  0.01018859       0.002
   0.01018859  0.01018859  0.01018859       0.002
   0.02037718  0.01018859  0.01018859       0.002
   0.03056577  0.01018859  0.01018859       0.002
   0.04075436  0.01018859  0.01018859       0.002
   0.05094295  0.01018859  0.01018859       0.002
  -0.04075436  0.01018859  0.01018859       0.002
  -0.03056577  0.01018859  0.01018859       0.002
  -0.02037718  0.01018859  0.01018859       0.002
  -0.01018859  0.01018859  0.01018859       0.002
   0.00000000  0.02037718  0.01018859       0.002
   0.01018859  0.02037718  0.01018859       0.002
   0.02037718  0.02037718  0.01018859       0.002
   0.03056577  0.02037718  0.01018859       0.002
   0.04075436  0.02037718  0.01018859       0.002
   0.05094295  0.02037718  0.01018859       0.002
  -0.04075436  0.02037718  0.01018859       0.002
  -0.03056577  0.02037718  0.01018859       0.002
  -0.02037718  0.02037718  0.01018859       0.002
  -0.01018859  0.02037718  0.01018859       0.002
   0.00000000  0.03056577  0.01018859       0.002
   0.01018859  0.03056577  0.01018859       0.002
   0.02037718  0.03056577  0.01018859       0.002
   0.03056577  0.03056577  0.01018859       0.002
   0.04075436  0.03056577  0.01018859       0.002
   0.05094295  0.03056577  0.01018859       0.002
  -0.04075436  0.03056577  0.01018859       0.002
  -0.03056577  0.03056577  0.01018859       0.002
  -0.02037718  0.03056577  0.01018859       0.002
  -0.01018859  0.03056577  0.01018859       0.002
   0.00000000  0.04075436  0.01018859       0.002
   0.01018859  0.04075436  0.01018859       0.002
   0.02037718  0.04075436  0.01018859       0.002
   0.03056577  0.04075436  0.01018859       0.002
   0.04075436  0.04075436  0.01018859       0.002
   0.05094295  0.04075436  0.01018859       0.002
  -0.04075436  0.04075436  0.01018859       0.002
  -0.03056577  0.04075436  0.01018859       0.002
  -0.02037718  0.04075436  0.01018859       0.002
  -0.01018859  0.04075436  0.01018859       0.002
   0.00000000  0.05094295  0.01018859       0.002
   0.01018859  0.05094295  0.01018859       0.002
   0.02037718  0.05094295  0.01018859       0.002
   0.03056577  0.05094295  0.01018859       0.002
   0.04075436  0.05094295  0.01018859       0.002
   0.05094295  0.05094295  0.01018859       0.002
  -0.04075436  0.05094295  0.01018859       0.002
  -0.03056577  0.05094295  0.01018859       0.002
  -0.02037718  0.05094295  0.01018859       0.002
  -0.01018859  0.05094295  0.01018859       0.002
   0.00000000 -0.04075436  0.01018859       0.002
   0.01018859 -0.04075436  0.01018859       0.002
   0.02037718 -0.04075436  0.01018859       0.002
   0.03056577 -0.04075436  0.01018859       0.002
   0.04075436 -0.04075436  0.01018859       0.002
   0.05094295 -0.04075436  0.01018859       0.002
  -0.04075436 -0.04075436  0.01018859       0.002
  -0.03056577 -0.04075436  0.01018859       0.002
  -0.02037718 -0.04075436  0.01018859       0.002
  -0.01018859 -0.04075436  0.01018859       0.002
   0.00000000 -0.03056577  0.01018859       0.002
   0.01018859 -0.03056577  0.01018859       0.002
   0.02037718 -0.03056577  0.01018859       0.002
   0.03056577 -0.03056577  0.01018859       0.002
   0.04075436 -0.03056577  0.01018859       0.002
   0.05094295 -0.03056577  0.01018859       0.002
  -0.04075436 -0.03056577  0.01018859       0.002
  -0.03056577 -0.03056577  0.01018859       0.002
  -0.02037718 -0.03056577  0.01018859       0.002
  -0.01018859 -0.03056577  0.01018859       0.002
   0.00000000 -0.02037718  0.01018859       0.002
   0.01018859 -0.02037718  0.01018859       0.002
   0.02037718 -0.02037718  0.01018859       0.002
   0.03056577 -0.02037718  0.01018859       0.002
   0.04075436 -0.02037718  0.01018859       0.002
   0.05094295 -0.02037718  0.01018859       0.002
  -0.04075436 -0.02037718  0.01018859       0.002
  -0.03056577 -0.02037718  0.01018859       0.002
  -0.02037718 -0.02037718  0.01018859       0.002
  -0.01018859 -0.02037718  0.01018859       0.002
   0.00000000 -0.01018859  0.01018859       0.002
   0.01018859 -0.01018859  0.01018859       0.002
   0.02037718 -0.01018859  0.01018859       0.002
   0.03056577 -0.01018859  0.01018859       0.002
   0.04075436 -0.01018859  0.01018859       0.002
   0.05094295 -0.01018859  0.01018859       0.002
  -0.04075436 -0.01018859  0.01018859       0.002
  -0.03056577 -0.01018859  0.01018859       0.002
  -0.02037718 -0.01018859  0.01018859       0.002
  -0.01018859 -0.01018859  0.01018859       0.002
   0.00000000  0.00000000  0.02037718       0.002
   0.01018859  0.00000000  0.02037718       0.002
   0.02037718  0.00000000  0.02037718       0.002
   0.03056577  0.00000000  0.02037718       0.002
   0.04075436  0.00000000  0.02037718       0.002
   0.05094295  0.00000000  0.02037718       0.002
  -0.04075436  0.00000000  0.02037718       0.002
  -0.03056577  0.00000000  0.02037718       0.002
  -0.02037718  0.00000000  0.02037718       0.002
  -0.01018859  0.00000000  0.02037718       0.002
   0.00000000  0.01018859  0.02037718       0.002
   0.01018859  0.01018859  0.02037718       0.002
   0.02037718  0.01018859  0.02037718       0.002
   0.03056577  0.01018859  0.02037718       0.002
   0.04075436  0.01018859  0.02037718       0.002
   0.05094295  0.01018859  0.02037718       0.002
  -0.04075436  0.01018859  0.02037718       0.002
  -0.03056577  0.01018859  0.02037718       0.002
  -0.02037718  0.01018859  0.02037718       0.002
  -0.01018859  0.01018859  0.02037718       0.002
   0.00000000  0.02037718  0.02037718       0.002
   0.01018859  0.02037718  0.02037718       0.002
   0.02037718  0.02037718  0.02037718       0.002
   0.03056577  0.02037718  0.02037718       0.002
   0.04075436  0.02037718  0.02037718       0.002
   0.05094295  0.02037718  0.02037718       0.002
  -0.04075436  0.02037718  0.02037718       0.002
  -0.03056577  0.02037718  0.02037718       0.002
  -0.02037718  0.02037718  0.02037718       0.002
  -0.01018859  0.02037718  0.02037718       0.002
   0.00000000  0.03056577  0.02037718       0.002
   0.01018859  0.03056577  0.02037718       0.002
   0.02037718  0.03056577  0.02037718       0.002
   0.03056577  0.03056577  0.02037718       0.002
   0.04075436  0.03056577  0.02037718       0.002
   0.05094295  0.03056577  0.02037718       0.002
  -0.04075436  0.03056577  0.02037718       0.002
  -0.03056577  0.03056577  0.02037718       0.002
  -0.02037718  0.03056577  0.02037718       0.002
  -0.01018859  0.03056577  0.02037718       0.002
   0.00000000  0.04075436  0.02037718       0.002
   0.01018859  0.04075436  0.02037718       0.002
   0.02037718  0.04075436  0.02037718       0.002
   0.03056577  0.04075436  0.02037718       0.002
   0.04075436  0.04075436  0.02037718       0.002
   0.05094295  0.04075436  0.02037718       0.002
  -0.04075436  0.04075436  0.02037718       0.002
  -0.03056577  0.04075436  0.02037718       0.002
  -0.02037718  0.04075436  0.02037718       0.002
  -0.01018859  0.04075436  0.02037718       0.002
   0.00000000  0.05094295  0.02037718       0.002
   0.01018859  0.05094295  0.02037718       0.002
   0.02037718  0.05094295  0.02037718       0.002
   0.03056577  0.05094295  0.02037718       0.002
   0.04075436  0.05094295  0.02037718       0.002
   0.05094295  0.05094295  0.02037718       0.002
  -0.04075436  0.05094295  0.02037718       0.002
  -0.03056577  0.05094295  0.02037718       0.002
  -0.02037718  0.05094295  0.02037718       0.002
  -0.01018859  0.05094295  0.02037718       0.002
   0.00000000 -0.04075436  0.02037718       0.002
   0.01018859 -0.04075436  0.02037718       0.002
   0.02037718 -0.04075436  0.02037718       0.002
   0.03056577 -0.04075436  0.02037718       0.002
   0.04075436 -0.04075436  0.02037718       0.002
   0.05094295 -0.04075436  0.02037718       0.002
  -0.04075436 -0.04075436  0.02037718       0.002
  -0.03056577 -0.04075436  0.02037718       0.002
  -0.02037718 -0.04075436  0.02037718       0.002
  -0.01018859 -0.04075436  0.02037718       0.002
   0.00000000 -0.03056577  0.02037718       0.002
   0.01018859 -0.03056577  0.02037718       0.002
   0.02037718 -0.03056577  0.02037718       0.002
   0.03056577 -0.03056577  0.02037718       0.002
   0.04075436 -0.03056577  0.02037718       0.002
   0.05094295 -0.03056577  0.02037718       0.002
  -0.04075436 -0.03056577  0.02037718       0.002
  -0.03056577 -0.03056577  0.02037718       0.002
  -0.02037718 -0.03056577  0.02037718       0.002
  -0.01018859 -0.03056577  0.02037718       0.002
   0.00000000 -0.02037718  0.02037718       0.002
   0.01018859 -0.02037718  0.02037718       0.002
   0.02037718 -0.02037718  0.02037718       0.002
   0.03056577 -0.02037718  0.02037718       0.002
   0.04075436 -0.02037718  0.02037718       0.002
   0.05094295 -0.02037718  0.02037718       0.002
  -0.04075436 -0.02037718  0.02037718       0.002
  -0.03056577 -0.02037718  0.02037718       0.002
  -0.02037718 -0.02037718  0.02037718       0.002
  -0.01018859 -0.02037718  0.02037718       0.002
   0.00000000 -0.01018859  0.02037718       0.002
   0.01018859 -0.01018859  0.02037718       0.002
   0.02037718 -0.01018859  0.02037718       0.002
   0.03056577 -0.01018859  0.02037718       0.002
   0.04075436 -0.01018859  0.02037718       0.002
   0.05094295 -0.01018859  0.02037718       0.002
  -0.04075436 -0.01018859  0.02037718       0.002
  -0.03056577 -0.01018859  0.02037718       0.002
  -0.02037718 -0.01018859  0.02037718       0.002
  -0.01018859 -0.01018859  0.02037718       0.002
   0.00000000  0.00000000  0.03056577       0.002
   0.01018859  0.00000000  0.03056577       0.002
   0.02037718  0.00000000  0.03056577       0.002
   0.03056577  0.00000000  0.03056577       0.002
   0.04075436  0.00000000  0.03056577       0.002
   0.05094295  0.00000000  0.03056577       0.002
  -0.04075436  0.00000000  0.03056577       0.002
  -0.03056577  0.00000000  0.03056577       0.002
  -0.02037718  0.00000000  0.03056577       0.002
  -0.01018859  0.00000000  0.03056577       0.002
   0.00000000  0.01018859  0.03056577       0.002
   0.01018859  0.01018859  0.03056577       0.002
   0.02037718  0.01018859  0.03056577       0.002
   0.03056577  0.01018859  0.03056577       0.002
   0.04075436  0.01018859  0.03056577       0.002
   0.05094295  0.01018859  0.03056577       0.002
  -0.04075436  0.01018859  0.03056577       0.002
  -0.03056577  0.01018859  0.03056577       0.002
  -0.02037718  0.01018859  0.03056577       0.002
  -0.01018859  0.01018859  0.03056577       0.002
   0.00000000  0.02037718  0.03056577       0.002
   0.01018859  0.02037718  0.03056577       0.002
   0.02037718  0.02037718  0.03056577       0.002
   0.03056577  0.02037718  0.03056577       0.002
   0.04075436  0.02037718  0.03056577       0.002
   0.05094295  0.02037718  0.03056577       0.002
  -0.04075436  0.02037718  0.03056577       0.002
  -0.03056577  0.02037718  0.03056577       0.002
  -0.02037718  0.02037718  0.03056577       0.002
  -0.01018859  0.02037718  0.03056577       0.002
   0.00000000  0.03056577  0.03056577       0.002
   0.01018859  0.03056577  0.03056577       0.002
   0.02037718  0.03056577  0.03056577       0.002
   0.03056577  0.03056577  0.03056577       0.002
   0.04075436  0.03056577  0.03056577       0.002
   0.05094295  0.03056577  0.03056577       0.002
  -0.04075436  0.03056577  0.03056577       0.002
  -0.03056577  0.03056577  0.03056577       0.002
  -0.02037718  0.03056577  0.03056577       0.002
  -0.01018859  0.03056577  0.03056577       0.002
   0.00000000  0.04075436  0.03056577       0.002
   0.01018859  0.04075436  0.03056577       0.002
   0.02037718  0.04075436  0.03056577       0.002
   0.03056577  0.04075436  0.03056577       0.002
   0.04075436  0.04075436  0.03056577       0.002
   0.05094295  0.04075436  0.03056577       0.002
  -0.04075436  0.04075436  0.03056577       0.002
  -0.03056577  0.04075436  0.03056577       0.002
  -0.02037718  0.04075436  0.03056577       0.002
  -0.01018859  0.04075436  0.03056577       0.002
   0.00000000  0.05094295  0.03056577       0.002
   0.01018859  0.05094295  0.03056577       0.002
   0.02037718  0.05094295  0.03056577       0.002
   0.03056577  0.05094295  0.03056577       0.002
   0.04075436  0.05094295  0.03056577       0.002
[...]
   -.884E+02 -.611E+01 -.313E+02   0.128E+03 0.599E+01 0.303E+02   -.395E+02 -.186E+01 0.662E+01   0.123E-02 0.447E-03 0.150E-02
   -.441E+02 0.307E+02 0.186E+02   0.510E+02 -.612E+02 -.193E+02   -.652E+01 0.333E+02 -.208E+00   0.154E-03 0.378E-03 -.103E-03
   0.553E+02 -.900E+02 -.229E+02   -.930E+02 0.867E+02 0.150E+02   0.362E+02 0.575E+00 0.732E+01   -.387E-03 -.215E-02 0.138E-02
   -.517E+01 0.289E+02 -.687E+02   0.246E+02 -.238E+02 0.992E+02   -.206E+02 -.572E+01 -.334E+02   0.335E-03 -.257E-03 0.827E-03
   -.403E+02 0.508E+02 -.457E+02   0.466E+02 -.156E+02 0.458E+02   -.588E+01 -.348E+02 -.740E+00   0.153E-04 0.900E-03 -.454E-03
   -.127E+02 0.603E+02 -.133E+02   0.422E+02 -.660E+02 0.149E+02   -.340E+02 0.600E+01 -.128E+01   0.469E-03 0.172E-03 -.548E-03
   0.658E+02 0.202E+01 -.374E+02   -.649E+02 0.176E+02 -.670E+00   -.161E+01 -.210E+02 0.412E+02   0.302E-03 0.180E-02 -.379E-03
   0.796E+02 0.512E+02 0.186E+02   -.787E+02 -.598E+02 -.486E+02   -.362E+01 0.431E+01 0.290E+02   -.131E-02 -.451E-03 -.928E-03
   0.211E+02 0.464E+02 -.362E+01   -.145E+02 -.790E+02 -.741E+01   -.602E+01 0.298E+02 0.919E+01   -.979E-04 0.226E-02 -.878E-03
   -.223E+02 0.444E+01 0.791E+02   0.356E+02 -.117E+02 -.113E+03   -.127E+02 0.788E+01 0.345E+02   0.128E-02 -.669E-03 -.225E-03
   -.549E+02 0.368E+02 -.805E+02   0.469E+02 -.778E+02 0.109E+03   0.684E+01 0.386E+02 -.301E+02   -.321E-03 -.344E-02 0.286E-02
   0.119E+02 -.128E+02 0.100E+02   -.338E+02 0.439E+01 -.150E+02   0.238E+02 0.863E+01 0.491E+01   0.145E-03 0.647E-03 -.271E-03
   0.101E+02 0.462E+02 0.441E+02   -.391E+02 -.735E+02 -.533E+02   0.233E+02 0.286E+02 0.745E+01   -.142E-02 0.116E-02 -.927E-03
   -.425E+02 -.509E+02 -.615E+02   0.614E+02 0.880E+02 0.596E+02   -.198E+02 -.371E+02 0.205E+01   -.586E-03 0.109E-02 -.878E-03
   0.235E+02 -.677E+02 0.121E+02   -.288E+02 0.761E+02 -.129E+02   0.427E+01 -.762E+01 0.759E+00   0.875E-04 -.259E-03 -.192E-03
   -.421E+02 -.166E+02 0.201E+02   0.449E+02 0.164E+02 -.211E+02   -.431E+01 -.898E+00 0.208E+01   -.441E-04 -.171E-03 -.159E-03
   0.134E+02 0.495E+02 -.399E+01   -.154E+02 -.550E+02 0.347E+01   0.274E+01 0.642E+01 0.428E+00   0.310E-05 -.109E-04 0.763E-05
   -.550E+02 -.854E+01 -.271E+02   0.645E+02 0.923E+01 0.319E+02   -.760E+01 -.127E+01 -.430E+01   -.119E-03 -.152E-03 0.390E-04
   -.505E+02 -.327E+02 0.674E+01   0.555E+02 0.332E+02 -.605E+01   -.638E+01 -.154E+01 0.236E+00   -.142E-03 -.256E-03 0.184E-03
   0.256E+02 0.111E+02 -.413E+02   -.271E+02 -.118E+02 0.451E+02   0.264E+01 0.173E+01 -.534E+01   0.101E-03 -.318E-04 0.442E-04
   0.203E+02 -.755E+02 -.129E+02   -.250E+02 0.883E+02 0.158E+02   0.334E+01 -.937E+01 -.240E+01   0.483E-04 0.447E-04 -.129E-03
   0.580E+01 0.392E+02 -.605E+02   -.888E+01 -.457E+02 0.717E+02   0.212E+01 0.438E+01 -.831E+01   -.528E-04 0.214E-03 -.216E-03
   0.452E+02 0.127E+02 0.430E+02   -.483E+02 -.124E+02 -.485E+02   0.439E+01 0.194E+00 0.558E+01   -.377E-04 0.176E-03 0.102E-03
   0.179E+02 0.566E+02 -.264E+02   -.197E+02 -.651E+02 0.320E+02   0.241E+01 0.695E+01 -.434E+01   -.943E-04 0.126E-03 0.432E-04
   0.316E+02 -.569E+02 0.478E+02   -.364E+02 0.642E+02 -.530E+02   0.380E+01 -.639E+01 0.493E+01   0.427E-04 -.258E-03 0.155E-03
   0.319E+02 0.142E+02 -.314E+02   -.342E+02 -.165E+02 0.320E+02   0.319E+01 0.326E+01 -.251E+01   -.838E-04 -.335E-04 -.240E-03
   0.471E+02 0.174E+02 -.480E+02   -.520E+02 -.187E+02 0.538E+02   0.487E+01 0.177E+01 -.603E+01   -.105E-03 -.272E-04 -.153E-03
   -.335E+02 0.650E+02 -.397E+01   0.430E+02 -.777E+02 0.228E+01   -.606E+01 0.888E+01 0.845E+00   -.219E-03 0.842E-04 -.353E-04
   0.640E+02 -.336E+02 0.320E+02   -.752E+02 0.405E+02 -.372E+02   0.837E+01 -.466E+01 0.395E+01   0.825E-04 -.169E-03 0.522E-04
   -.133E+02 -.227E+02 -.363E+02   0.140E+02 0.244E+02 0.391E+02   -.179E+01 -.212E+01 -.476E+01   0.214E-04 -.223E-03 0.322E-05
   0.235E+02 -.348E+02 0.139E+02   -.240E+02 0.362E+02 -.144E+02   0.116E+01 -.453E+01 0.557E+00   0.198E-03 -.150E-03 0.715E-04
   0.304E+02 0.248E+02 -.460E+02   -.334E+02 -.270E+02 0.506E+02   0.324E+01 0.322E+01 -.544E+01   0.208E-04 0.337E-03 -.225E-03
   0.157E+02 -.826E+00 0.560E+02   -.188E+02 0.673E+00 -.646E+02   0.285E+01 -.593E+00 0.758E+01   0.410E-05 -.108E-04 -.111E-03
   -.153E+02 -.597E+02 -.154E+02   0.177E+02 0.663E+02 0.159E+02   -.149E+01 -.683E+01 -.869E-01   0.711E-04 0.934E-05 -.167E-03
   0.736E+02 0.192E+02 0.678E+01   -.865E+02 -.221E+02 -.902E+01   0.974E+01 0.199E+01 0.141E+01   0.396E-03 0.110E-03 0.794E-04
   -.211E+02 -.501E+02 0.428E+02   0.238E+02 0.561E+02 -.497E+02   -.217E+01 -.527E+01 0.635E+01   0.102E-03 -.237E-03 0.273E-03
   -.175E+02 0.657E+02 0.491E+01   0.207E+02 -.759E+02 -.637E+01   -.204E+01 0.856E+01 0.137E+01   0.478E-04 0.230E-03 0.421E-04
   0.531E+02 0.192E+02 -.439E+01   -.592E+02 -.187E+02 0.570E+01   0.650E+01 0.126E+01 -.113E+01   -.522E-05 0.141E-03 -.414E-05
   0.191E+02 -.137E+02 -.455E+02   -.230E+02 0.164E+02 0.515E+02   0.316E+01 -.214E+01 -.649E+01   -.663E-05 0.776E-04 -.209E-03
   -.317E+02 0.342E+02 -.199E+02   0.357E+02 -.375E+02 0.208E+02   -.368E+01 0.395E+01 -.242E+01   0.763E-05 0.110E-03 -.109E-03
   -.241E+02 -.702E+02 0.120E+02   0.256E+02 0.779E+02 -.132E+02   -.115E+01 -.761E+01 0.154E+01   -.163E-03 -.208E-03 0.138E-03
   0.400E+02 0.105E+02 -.284E+01   -.421E+02 -.109E+02 0.285E+01   0.466E+01 -.151E+00 0.687E+00   0.271E-04 0.154E-03 0.513E-04
   -.470E+01 0.261E+02 -.265E+02   0.494E+01 -.274E+02 0.283E+02   -.475E+00 0.165E+01 -.410E+01   -.752E-04 0.640E-04 -.344E-03
   0.281E+02 -.498E+02 -.356E+01   -.292E+02 0.537E+02 0.445E+01   0.221E+01 -.498E+01 -.200E+01   0.234E-04 0.104E-03 0.600E-04
   0.909E+01 -.312E+02 0.287E+02   -.843E+01 0.330E+02 -.313E+02   -.338E+00 -.264E+01 0.452E+01   0.249E-03 -.113E-03 -.847E-04
   0.669E+02 -.260E+02 -.478E+02   -.770E+02 0.302E+02 0.567E+02   0.717E+01 -.278E+01 -.683E+01   0.305E-03 -.224E-03 -.221E-03
   0.670E+02 0.320E+01 0.210E+02   -.765E+02 -.418E+01 -.251E+02   0.804E+01 0.653E+00 0.305E+01   0.858E-04 -.229E-03 -.139E-03
   0.203E+01 -.653E+02 -.112E+02   0.287E-01 0.741E+02 0.132E+02   -.101E+01 -.793E+01 -.198E+01   -.166E-04 -.394E-03 -.129E-03
   0.127E+02 0.109E+02 -.491E+02   -.127E+02 -.106E+02 0.497E+02   0.158E+01 0.867E+00 -.405E+01   0.182E-03 -.106E-04 0.134E-03
   0.466E+02 -.102E+02 0.333E+02   -.561E+02 0.130E+02 -.404E+02   0.756E+01 -.200E+01 0.527E+01   0.314E-03 0.122E-03 0.202E-03
   -.264E+02 -.370E+02 0.390E+02   0.261E+02 0.379E+02 -.389E+02   -.249E+01 -.319E+01 0.220E+01   -.753E-04 -.279E-03 0.104E-03
   0.247E+02 -.619E+01 -.207E+02   -.254E+02 0.709E+01 0.222E+02   0.338E+01 -.922E+00 -.259E+01   0.793E-04 0.305E-04 -.621E-04
   -.507E+02 -.669E+02 -.348E+02   0.600E+02 0.749E+02 0.385E+02   -.707E+01 -.629E+01 -.296E+01   -.933E-04 -.384E-03 0.236E-03
   -.203E+02 0.271E+02 -.128E+01   0.220E+02 -.303E+02 0.366E+00   -.236E+01 0.458E+01 0.878E+00   -.186E-04 -.280E-03 0.201E-03
   0.569E+02 0.138E+02 0.820E+01   -.627E+02 -.154E+02 -.765E+01   0.611E+01 0.123E+01 0.883E+00   0.209E-03 0.530E-05 0.623E-04
   -.407E+01 0.143E+02 0.553E+02   0.570E+01 -.146E+02 -.603E+02   -.100E+01 0.914E+00 0.623E+01   -.262E-04 -.716E-04 0.180E-03
   0.396E+02 0.264E+02 -.561E+01   -.459E+02 -.280E+02 0.666E+01   0.645E+01 0.136E+01 -.770E+00   -.602E-04 0.109E-03 -.364E-04
   -.492E+02 0.797E+02 -.103E+02   0.538E+02 -.866E+02 0.107E+02   -.498E+01 0.666E+01 0.597E-01   -.929E-05 0.196E-03 0.263E-04
   0.351E+02 0.902E+01 0.414E+02   -.360E+02 -.872E+01 -.422E+02   0.347E+01 0.209E-01 0.373E+01   0.185E-03 -.125E-03 0.667E-04
   0.269E+02 0.326E+01 -.329E+02   -.271E+02 -.310E+01 0.332E+02   0.239E+01 -.437E+00 -.321E+01   0.172E-03 0.606E-04 -.212E-03
   0.666E+02 0.266E+02 -.445E+02   -.704E+02 -.280E+02 0.463E+02   0.515E+01 0.216E+01 -.351E+01   0.103E-03 0.237E-03 -.208E-04
   -.406E+02 0.696E+01 -.561E+02   0.451E+02 -.796E+01 0.599E+02   -.490E+01 0.121E+01 -.497E+01   0.211E-04 0.274E-03 0.249E-04
   -.195E+02 -.466E+02 -.267E+02   0.238E+02 0.554E+02 0.331E+02   -.389E+01 -.704E+01 -.390E+01   -.200E-03 0.609E-04 -.236E-03
   0.527E+02 0.458E+02 -.306E+02   -.540E+02 -.470E+02 0.321E+02   0.345E+01 0.399E+01 -.279E+01   -.464E-04 -.205E-04 -.196E-03
   0.348E+02 -.511E+01 -.661E+02   -.395E+02 0.824E+01 0.765E+02   0.336E+01 -.166E+01 -.855E+01   -.196E-04 0.310E-03 -.958E-04
   -.699E+01 -.454E+02 0.438E+02   0.966E+01 0.530E+02 -.499E+02   -.204E+01 -.612E+01 0.583E+01   -.268E-04 0.392E-03 -.200E-03
   -.251E+02 -.200E+02 -.506E+02   0.285E+02 0.226E+02 0.547E+02   -.290E+01 -.262E+01 -.563E+01   0.862E-04 0.311E-04 -.927E-04
   0.488E+02 0.426E+01 -.596E+01   -.551E+02 -.565E+01 0.853E+01   0.608E+01 0.783E+00 -.283E+01   0.137E-03 -.852E-04 0.504E-04
   0.563E+00 -.139E+02 0.497E+02   -.250E+01 0.134E+02 -.566E+02   0.128E+01 -.135E+01 0.658E+01   0.891E-05 -.408E-03 0.301E-03
   -.387E+02 -.713E+02 -.497E+01   0.442E+02 0.847E+02 0.656E+01   -.341E+01 -.942E+01 0.247E+00   0.238E-05 -.417E-03 0.342E-03
   -.120E+02 -.620E+01 0.196E+02   0.116E+02 0.642E+01 -.196E+02   -.120E+01 0.532E+00 0.176E+01   -.167E-03 0.300E-04 0.187E-03
   -.236E+02 -.273E+02 -.266E+02   0.253E+02 0.288E+02 0.290E+02   -.277E+01 -.282E+01 -.396E+01   -.708E-04 0.231E-04 -.156E-03
   0.892E+01 -.388E+02 0.131E+02   -.102E+02 0.416E+02 -.134E+02   0.235E+01 -.486E+01 0.503E+00   -.127E-03 -.960E-04 -.991E-04
   -.793E+02 -.301E+01 -.139E+02   0.941E+02 0.436E+01 0.190E+02   -.102E+02 -.666E+00 -.309E+01   -.163E-03 0.943E-04 -.702E-04
   0.543E+02 0.570E+01 -.117E+02   -.607E+02 -.582E+01 0.121E+02   0.721E+01 0.605E+00 -.646E+00   0.184E-03 0.132E-03 -.662E-05
   -.261E+02 0.567E+02 -.897E+01   0.293E+02 -.651E+02 0.974E+01   -.293E+01 0.776E+01 -.632E+00   -.133E-03 0.172E-03 0.114E-06
 -----------------------------------------------------------------------------------------------
   0.223E+03 -.124E+03 -.157E+03   -.224E-12 0.000E+00 0.167E-12   -.223E+03 0.124E+03 0.157E+03   0.993E-03 -.295E-02 -.248E-02
 
 
 POSITION                                       TOTAL-FORCE (eV/Angst)
 -----------------------------------------------------------------------------------
      5.69341      3.77490      1.28080         2.893527      0.090095     -0.977875
      0.84765      5.52625      7.38332        -2.413888     -0.343063     -0.383105
      0.68475      3.76007      3.99921         0.083019     -0.151738      0.525872
      0.68254      7.49905      1.63968         2.269769     -1.253623     -3.495308
      7.34822      0.18288      6.86419        -0.968403      0.620138     -1.823341
      7.06967      3.85530      7.43344         0.297530     -1.719504      1.976037
      5.63879      1.87556      7.75932        -4.155635      3.554308      1.776000
      0.13454      2.09568      1.80300         4.048091     -1.707673      2.967690
      2.74678      8.41872      9.59909        -1.111819      1.899648      0.607621
      8.24363      3.85368      0.21705        -0.716141      1.445815      0.343665
      2.67274      2.08845      6.92684         2.167791      0.110964      0.833732
      9.45128      3.24802      6.58723        -1.283865     -0.082322     -0.152683
      7.13410      8.01310      8.55200         0.399849     -1.599614      1.517848
      6.64275      0.43076      4.26413        -3.533399      0.701132     -1.166146
      3.39393      5.98584      8.34537        -1.737970      1.064078      3.888989
      2.27545      1.34649      9.33074         2.599821     -0.606273     -3.112599
      4.57553      1.38007      0.90302         0.513897     -0.406200      0.835001
      6.70565      6.41553      4.11096         0.491467     -1.961516      5.596139
      8.28370      9.31400      2.32889         0.370083      2.705184     -0.941157
      3.35429      3.56444      4.31933        -1.560197     -2.721792     -0.647063
      4.05316      1.16593      3.72060        -1.170269     -0.700972     -2.843950
      0.03798      0.45249      6.19075         0.440134      0.392393     -0.661447
      1.42618      0.35638      3.66375        -4.471366      0.310395      0.249734
      3.66890      8.18084      4.90610        -0.742790     -1.336178      3.116505
      3.47044      5.33450      1.10671        -2.677761     -4.296035     -0.970937
      4.56969      7.21490      2.57170         0.635595     -2.750847     -1.846398
      5.44539      6.40043      6.98767         0.623692      0.662305      0.648786
      6.25553      3.49959      3.91328        -1.201257     -2.391543     -1.364825
      9.17293      6.41499      9.34168         1.801055      0.240320     -0.074726
      5.90715      8.93706      0.96479        -5.644233      1.309398     -1.746565
      9.53855      6.52453      3.92067        -0.985230      0.078744      0.174371
      5.24039      4.61413      1.19475        -1.062294      0.754572     -0.099986
      6.65914      3.99341      0.80380        -1.471061     -1.191060      1.064244
      0.48206      4.57660      7.35129         0.673826      0.853142     -0.093761
      1.66702      5.63221      7.86297         1.930811     -0.580286      0.501671
      1.69144      3.99380      3.99953        -1.387553     -1.015180      0.921084
      0.28687      3.46257      4.92000         1.152446      0.991460     -1.457360
      0.38915      8.33916      1.85550        -1.350222      3.406769      0.486643
      0.47778      7.07755      2.44558        -0.947522     -2.087716      2.887745
      6.70939      0.14473      6.07587         1.245585      0.473055      0.122193
      7.06500      9.21229      7.34626         0.578427     -1.556638      1.324507
      6.64375      4.52762      6.90823        -0.931946      0.830472     -0.237095
      6.38235      3.18345      7.91153         0.869380      0.997067     -1.874563
      5.04303      1.64357      8.50952        -0.068372      0.458542     -0.221981
      6.13958      1.12815      7.70246         3.512029     -3.822021     -0.837733
      9.20694      2.51800      1.47570        -2.891979      2.243328     -1.254856
      0.45143      2.53668      2.73470        -1.117369     -0.394354     -1.974149
      2.44314      9.48704      9.50920         0.664072     -3.066948      0.143564
      2.26919      7.98539      0.56951         0.228580      0.993951     -0.883778
      7.89475      3.92357      9.12065        -0.218855     -0.744110     -1.088894
      8.45135      4.84963      0.23024         0.853344     -0.192242      0.406660
      1.77759      1.92007      6.78587        -3.140534     -0.915321     -0.842836
      2.89745      2.69390      6.20671         0.584110      0.758960     -0.524965
      9.67949      2.33456      6.44138         1.125940     -1.675235     -0.092460
      8.45898      3.04399      6.75631         0.366747      1.713358      0.179018
      6.72474      8.29563      9.41120        -0.739000      0.533750     -0.442739
      7.78660      7.31400      8.99033         0.298033      0.677049     -1.438036
      6.78400      1.39181      4.06378         0.398163      0.077292      0.357052
      5.54033      0.49125      4.08068         2.582698     -0.487126      0.690394
      3.51119      5.59600      9.38387        -0.234028      0.356786     -2.302046
      2.98292      6.89567      8.71890         1.016341     -1.019783     -1.109021
      2.31190      1.89212      8.40759         0.316575     -0.896269      1.903389
      1.62937      1.61000      0.11104        -2.928714      1.421657      2.046492
      3.67623      1.31914      0.57074        -1.409499     -0.325854     -1.025786
      4.67554      2.32127      1.13716         1.049502      0.890976     -0.050337
      6.25646      6.17933      5.14655         1.621285      1.236941     -3.411054
      5.94222      6.60875      3.60357        -1.890343      0.745855     -1.773245
      8.87115      0.31947      1.81317        -2.780341     -2.177870      2.295523
      7.43260      9.64035      2.98448         2.668697     -0.026809     -1.159643
      4.01834      4.14611      4.59513         2.230815      1.696841      0.709034
      3.83197      2.62509      4.13254        -0.688869      1.416674     -0.044273
      3.04247      0.96249      3.57070         0.384828     -0.413875      1.434485
      4.21407      1.03089      2.70110         0.633976      0.656579      1.303395
      8.86757      0.21482      6.30956         0.186151     -0.284234      0.270590
      0.60458      9.47575      6.18538        -0.395206     -0.240627      0.399209
      0.66531      0.34916      2.85995         2.569046      0.313794      2.895128
      0.73409      0.48054      4.58582         2.080680     -0.263089     -2.905175
      2.87065      7.83505      5.47039         1.315381      0.750756     -1.712325
      4.36496      8.00149      5.62776        -0.408228      0.219178     -1.093434
      3.86943      6.07039      1.55191         0.363648      1.771027      2.436832
      2.86152      4.64244      1.64468         2.105764      2.747883     -1.249764
      4.23256      7.41086      3.42653        -1.326722      1.471336      1.858960
      4.78201      7.91912      1.95522         0.622987      1.476064     -0.272265
      5.87131      6.78634      7.83316         0.520849      0.022923     -1.512910
      4.54079      6.28376      7.41599        -0.210662     -0.607991     -0.263183
      6.06310      3.70046      2.93634        -0.665159     -1.801506     -0.285647
      6.57129      4.36250      3.89479         2.103329      3.884439      1.836454
      0.06967      6.07391      8.42980        -1.568888      0.737497      1.665623
      9.72118      6.95096      0.27035        -1.049007     -1.371361     -1.489041
      5.47127      0.09789      0.87801         1.090928     -2.082576      0.183341
      6.76999      9.01404      1.22859         4.626435      0.684528      1.964182
      8.53897      6.41229      4.00842         0.820058      0.481192     -0.245423
      0.05079      5.61231      3.99488         0.229812     -0.661638      0.132485
 -----------------------------------------------------------------------------------
    total drift:                                0.000494      0.025261     -0.000656


--------------------------------------------------------------------------------------------------------



  FREE ENERGIE OF THE ION-ELECTRON SYSTEM (eV)
  ---------------------------------------------------
  free  energy   TOTEN  =      -449.63544638 eV

  energy  without entropy=     -449.63544638  energy(sigma->0) =     -449.63544638
 


--------------------------------------------------------------------------------------------------------


    POTLOK:  cpu time    0.0249: real time    0.0250


--------------------------------------------------------------------------------------------------------


     LOOP+:  cpu time 1407.0567: real time 1420.2980
    4ORBIT:  cpu time    0.0000: real time    0.0000

 total amount of memory used by VASP MPI-rank0   666502. kBytes
=======================================================================

   base      :      30000. kBytes
   nonlr-proj:       2426. kBytes
   fftplans  :       1123. kBytes
   grid      :       1850. kBytes
   one-center:         15. kBytes
   wavefun   :     631088. kBytes
 
  
  
 General timing and accounting informations for this job:
 ========================================================
  
                  Total CPU time used (sec):     1491.919
                            User time (sec):     1488.165
                          System time (sec):        3.754
                         Elapsed time (sec):     1506.785
  
                   Maximum memory used (kb):     1491380.
                   Average memory used (kb):           0.
  
                          Minor page faults:       222798
                          Major page faults:         1394
                 Voluntary context switches:        16932
