  93  93   0   0
  0.1016658E+02  0.9814900E-09  0.9814900E-09  0.9814900E-09  0.5000000E-15
  1.000000000000000E-004
  CAR 
 ice                                     
      9.66821636    -25.03425027  301     -1.89915955      1.00000000
    -25.034  0.0000E+00  0.0000E+00
    -24.919  0.0000E+00  0.0000E+00
    -24.803  0.0000E+00  0.0000E+00
    -24.687  0.0000E+00  0.0000E+00
    -24.572  0.0000E+00  0.0000E+00
    -24.456  0.0000E+00  0.0000E+00
    -24.340  0.0000E+00  0.0000E+00
    -24.225  0.0000E+00  0.0000E+00
    -24.109  0.0000E+00  0.0000E+00
    -23.993  0.0000E+00  0.0000E+00
    -23.878  0.3677E-02  0.4253E-03
    -23.762  0.3342E-01  0.4291E-02
    -23.646  0.3381E+00  0.4341E-01
    -23.530  0.2816E+01  0.3691E+00
    -23.415  0.9486E+01  0.1466E+01
    -23.299  0.1011E+02  0.2636E+01
    -23.183  0.1880E+02  0.4810E+01
    -23.068  0.2016E+02  0.7143E+01
    -22.952  0.2454E+02  0.9982E+01
    -22.836  0.2380E+02  0.1274E+02
    -22.721  0.1134E+02  0.1405E+02
    -22.605  0.1321E+02  0.1558E+02
    -22.489  0.3077E+02  0.1915E+02
    -22.374  0.3409E+02  0.2309E+02
    -22.258  0.3032E+02  0.2660E+02
    -22.142  0.2481E+02  0.2947E+02
    -22.027  0.1687E+02  0.3143E+02
    -21.911  0.2158E+02  0.3393E+02
    -21.795  0.2463E+02  0.3679E+02
    -21.680  0.1297E+02  0.3829E+02
    -21.564  0.1823E+02  0.4040E+02
    -21.448  0.2195E+02  0.4295E+02
    -21.333  0.9407E+01  0.4404E+02
    -21.217  0.1123E+02  0.4533E+02
    -21.101  0.2956E+02  0.4876E+02
    -20.986  0.2438E+02  0.5158E+02
    -20.870  0.1200E+02  0.5297E+02
    -20.754  0.1223E+02  0.5438E+02
    -20.639  0.1822E+02  0.5650E+02
    -20.523  0.1143E+02  0.5782E+02
    -20.407  0.4665E+01  0.5836E+02
    -20.292  0.9076E+01  0.5941E+02
    -20.176  0.4383E+01  0.5992E+02
    -20.060  0.6732E+00  0.6000E+02
    -19.945  0.6818E+00  0.6008E+02
    -19.829  0.4425E+01  0.6059E+02
    -19.713  0.8880E+01  0.6162E+02
    -19.598  0.2901E+01  0.6195E+02
    -19.482  0.3537E+00  0.6200E+02
    -19.366  0.0000E+00  0.6200E+02
    -19.251  0.0000E+00  0.6200E+02
    -19.135  0.0000E+00  0.6200E+02
    -19.019  0.0000E+00  0.6200E+02
    -18.903  0.0000E+00  0.6200E+02
    -18.788  0.0000E+00  0.6200E+02
    -18.672  0.0000E+00  0.6200E+02
    -18.556  0.0000E+00  0.6200E+02
    -18.441  0.0000E+00  0.6200E+02
    -18.325  0.0000E+00  0.6200E+02
    -18.209  0.0000E+00  0.6200E+02
    -18.094  0.0000E+00  0.6200E+02
    -17.978  0.0000E+00  0.6200E+02
    -17.862  0.0000E+00  0.6200E+02
    -17.747  0.0000E+00  0.6200E+02
    -17.631  0.0000E+00  0.6200E+02
    -17.515  0.0000E+00  0.6200E+02
    -17.400  0.0000E+00  0.6200E+02
    -17.284  0.0000E+00  0.6200E+02
    -17.168  0.0000E+00  0.6200E+02
    -17.053  0.0000E+00  0.6200E+02
    -16.937  0.0000E+00  0.6200E+02
    -16.821  0.0000E+00  0.6200E+02
    -16.706  0.0000E+00  0.6200E+02
    -16.590  0.0000E+00  0.6200E+02
    -16.474  0.0000E+00  0.6200E+02
    -16.359  0.0000E+00  0.6200E+02
    -16.243  0.0000E+00  0.6200E+02
    -16.127  0.0000E+00  0.6200E+02
    -16.012  0.0000E+00  0.6200E+02
    -15.896  0.0000E+00  0.6200E+02
    -15.780  0.0000E+00  0.6200E+02
    -15.665  0.0000E+00  0.6200E+02
    -15.549  0.0000E+00  0.6200E+02
    -15.433  0.0000E+00  0.6200E+02
    -15.318  0.0000E+00  0.6200E+02
    -15.202  0.0000E+00  0.6200E+02
    -15.086  0.0000E+00  0.6200E+02
    -14.971  0.0000E+00  0.6200E+02
    -14.855  0.0000E+00  0.6200E+02
    -14.739  0.0000E+00  0.6200E+02
    -14.624  0.0000E+00  0.6200E+02
    -14.508  0.0000E+00  0.6200E+02
    -14.392  0.0000E+00  0.6200E+02
    -14.276  0.0000E+00  0.6200E+02
    -14.161  0.0000E+00  0.6200E+02
    -14.045  0.0000E+00  0.6200E+02
    -13.929  0.0000E+00  0.6200E+02
    -13.814  0.0000E+00  0.6200E+02
    -13.698  0.0000E+00  0.6200E+02
    -13.582  0.0000E+00  0.6200E+02
    -13.467  0.0000E+00  0.6200E+02
    -13.351  0.0000E+00  0.6200E+02
    -13.235  0.0000E+00  0.6200E+02
    -13.120  0.0000E+00  0.6200E+02
    -13.004  0.0000E+00  0.6200E+02
    -12.888  0.0000E+00  0.6200E+02
    -12.773  0.0000E+00  0.6200E+02
    -12.657  0.0000E+00  0.6200E+02
    -12.541  0.0000E+00  0.6200E+02
    -12.426  0.0000E+00  0.6200E+02
    -12.310  0.0000E+00  0.6200E+02
    -12.194  0.0000E+00  0.6200E+02
    -12.079  0.0000E+00  0.6200E+02
    -11.963  0.2650E-02  0.6200E+02
    -11.847  0.2477E-01  0.6200E+02
    -11.732  0.2473E+00  0.6203E+02
    -11.616  0.2170E+01  0.6228E+02
    -11.500  0.8992E+01  0.6332E+02
    -11.385  0.1106E+02  0.6460E+02
    -11.269  0.1643E+02  0.6650E+02
    -11.153  0.1406E+02  0.6813E+02
    -11.038  0.1511E+02  0.6988E+02
    -10.922  0.2005E+02  0.7220E+02
    -10.806  0.1298E+02  0.7371E+02
    -10.691  0.4760E+01  0.7426E+02
    -10.575  0.1348E+02  0.7582E+02
    -10.459  0.2399E+02  0.7860E+02
    -10.344  0.1874E+02  0.8076E+02
    -10.228  0.1404E+02  0.8239E+02
    -10.112  0.2146E+02  0.8488E+02
     -9.997  0.2554E+02  0.8783E+02
     -9.881  0.2225E+02  0.9041E+02
     -9.765  0.2257E+02  0.9302E+02
     -9.649  0.1963E+02  0.9530E+02
     -9.534  0.1336E+02  0.9685E+02
     -9.418  0.1839E+02  0.9898E+02
     -9.302  0.2019E+02  0.1013E+03
     -9.187  0.2956E+02  0.1047E+03
     -9.071  0.2815E+02  0.1080E+03
     -8.955  0.2631E+02  0.1110E+03
     -8.840  0.2081E+02  0.1135E+03
     -8.724  0.1202E+02  0.1149E+03
     -8.608  0.1915E+02  0.1171E+03
     -8.493  0.2015E+02  0.1194E+03
     -8.377  0.2272E+02  0.1220E+03
     -8.261  0.1418E+02  0.1237E+03
     -8.146  0.3954E+01  0.1241E+03
     -8.030  0.8133E+01  0.1251E+03
     -7.914  0.1713E+02  0.1271E+03
     -7.799  0.1792E+02  0.1291E+03
     -7.683  0.8688E+01  0.1301E+03
     -7.567  0.1329E+02  0.1317E+03
     -7.452  0.2380E+02  0.1344E+03
     -7.336  0.2342E+02  0.1371E+03
     -7.220  0.2630E+02  0.1402E+03
     -7.105  0.2572E+02  0.1432E+03
     -6.989  0.2292E+02  0.1458E+03
     -6.873  0.2335E+02  0.1485E+03
     -6.758  0.2559E+02  0.1515E+03
     -6.642  0.3007E+02  0.1550E+03
     -6.526  0.2831E+02  0.1583E+03
     -6.411  0.1886E+02  0.1604E+03
     -6.295  0.1355E+02  0.1620E+03
     -6.179  0.1502E+02  0.1638E+03
     -6.064  0.2001E+02  0.1661E+03
     -5.948  0.2317E+02  0.1688E+03
     -5.832  0.2487E+02  0.1716E+03
     -5.717  0.2212E+02  0.1742E+03
     -5.601  0.2440E+02  0.1770E+03
     -5.485  0.2551E+02  0.1800E+03
     -5.370  0.2324E+02  0.1827E+03
     -5.254  0.2006E+02  0.1850E+03
     -5.138  0.1350E+02  0.1866E+03
     -5.022  0.2290E+02  0.1892E+03
     -4.907  0.2714E+02  0.1924E+03
     -4.791  0.1526E+02  0.1941E+03
     -4.675  0.1812E+02  0.1962E+03
     -4.560  0.2934E+02  0.1996E+03
     -4.444  0.4317E+02  0.2046E+03
     -4.328  0.4929E+02  0.2103E+03
     -4.213  0.4454E+02  0.2155E+03
     -4.097  0.4428E+02  0.2206E+03
     -3.981  0.3939E+02  0.2252E+03
     -3.866  0.3727E+02  0.2295E+03
     -3.750  0.3620E+02  0.2337E+03
     -3.634  0.4002E+02  0.2383E+03
     -3.519  0.3553E+02  0.2424E+03
     -3.403  0.1755E+02  0.2445E+03
     -3.287  0.1137E+02  0.2458E+03
     -3.172  0.8654E+01  0.2468E+03
     -3.056  0.8272E+01  0.2478E+03
     -2.940  0.1868E+01  0.2480E+03
     -2.825  0.2100E+00  0.2480E+03
     -2.709  0.0000E+00  0.2480E+03
     -2.593  0.0000E+00  0.2480E+03
     -2.478  0.0000E+00  0.2480E+03
     -2.362  0.0000E+00  0.2480E+03
     -2.246  0.0000E+00  0.2480E+03
     -2.131  0.0000E+00  0.2480E+03
     -2.015  0.0000E+00  0.2480E+03
     -1.899  0.0000E+00  0.2480E+03
     -1.784  0.0000E+00  0.2480E+03
     -1.668  0.0000E+00  0.2480E+03
     -1.552  0.0000E+00  0.2480E+03
     -1.437  0.0000E+00  0.2480E+03
     -1.321  0.0000E+00  0.2480E+03
     -1.205  0.0000E+00  0.2480E+03
     -1.090  0.0000E+00  0.2480E+03
     -0.974  0.0000E+00  0.2480E+03
     -0.858  0.0000E+00  0.2480E+03
     -0.743  0.0000E+00  0.2480E+03
     -0.627  0.0000E+00  0.2480E+03
     -0.511  0.0000E+00  0.2480E+03
     -0.395  0.0000E+00  0.2480E+03
     -0.280  0.0000E+00  0.2480E+03
     -0.164  0.0000E+00  0.2480E+03
     -0.048  0.0000E+00  0.2480E+03
      0.067  0.0000E+00  0.2480E+03
      0.183  0.4101E-04  0.2480E+03
      0.299  0.6125E-03  0.2480E+03
      0.414  0.6287E-02  0.2480E+03
      0.530  0.6034E-01  0.2480E+03
      0.646  0.4169E+00  0.2481E+03
      0.761  0.1380E+01  0.2482E+03
      0.877  0.2723E+01  0.2485E+03
      0.993  0.4165E+01  0.2490E+03
      1.108  0.4472E+01  0.2495E+03
      1.224  0.2945E+01  0.2499E+03
      1.340  0.9931E+00  0.2500E+03
      1.455  0.4390E+00  0.2500E+03
      1.571  0.1240E+01  0.2502E+03
      1.687  0.2910E+01  0.2505E+03
      1.802  0.4941E+01  0.2511E+03
      1.918  0.5527E+01  0.2517E+03
      2.034  0.5154E+01  0.2523E+03
      2.149  0.5956E+01  0.2530E+03
      2.265  0.5903E+01  0.2537E+03
      2.381  0.5808E+01  0.2544E+03
      2.496  0.6652E+01  0.2551E+03
      2.612  0.6948E+01  0.2559E+03
      2.728  0.6550E+01  0.2567E+03
      2.843  0.7164E+01  0.2575E+03
      2.959  0.7960E+01  0.2585E+03
      3.075  0.9408E+01  0.2595E+03
      3.190  0.1037E+02  0.2607E+03
      3.306  0.1034E+02  0.2619E+03
      3.422  0.1049E+02  0.2632E+03
      3.537  0.1174E+02  0.2645E+03
      3.653  0.1151E+02  0.2659E+03
      3.769  0.1063E+02  0.2671E+03
      3.884  0.1040E+02  0.2683E+03
      4.000  0.1162E+02  0.2696E+03
      4.116  0.1277E+02  0.2711E+03
      4.231  0.1332E+02  0.2727E+03
      4.347  0.1393E+02  0.2743E+03
      4.463  0.1451E+02  0.2759E+03
      4.579  0.1512E+02  0.2777E+03
      4.694  0.1541E+02  0.2795E+03
      4.810  0.1552E+02  0.2813E+03
      4.926  0.1573E+02  0.2831E+03
      5.041  0.1681E+02  0.2851E+03
      5.157  0.1667E+02  0.2870E+03
      5.273  0.1862E+02  0.2891E+03
      5.388  0.2069E+02  0.2915E+03
      5.504  0.2074E+02  0.2939E+03
      5.620  0.2097E+02  0.2964E+03
      5.735  0.2184E+02  0.2989E+03
      5.851  0.2209E+02  0.3015E+03
      5.967  0.2230E+02  0.3040E+03
      6.082  0.2378E+02  0.3068E+03
      6.198  0.2424E+02  0.3096E+03
      6.314  0.2449E+02  0.3124E+03
      6.429  0.2576E+02  0.3154E+03
      6.545  0.2749E+02  0.3186E+03
      6.661  0.2752E+02  0.3218E+03
      6.776  0.2573E+02  0.3248E+03
      6.892  0.2349E+02  0.3275E+03
      7.008  0.2308E+02  0.3302E+03
      7.123  0.2309E+02  0.3328E+03
      7.239  0.2146E+02  0.3353E+03
      7.355  0.1971E+02  0.3376E+03
      7.470  0.1761E+02  0.3396E+03
      7.586  0.1460E+02  0.3413E+03
      7.702  0.1133E+02  0.3427E+03
      7.817  0.7446E+01  0.3435E+03
      7.933  0.3188E+01  0.3439E+03
      8.049  0.7809E+00  0.3440E+03
      8.164  0.1439E+00  0.3440E+03
      8.280  0.2037E-01  0.3440E+03
      8.396  0.1876E-02  0.3440E+03
      8.511  0.0000E+00  0.3440E+03
      8.627  0.0000E+00  0.3440E+03
      8.743  0.0000E+00  0.3440E+03
      8.858  0.0000E+00  0.3440E+03
      8.974  0.0000E+00  0.3440E+03
      9.090  0.0000E+00  0.3440E+03
      9.206  0.0000E+00  0.3440E+03
      9.321  0.0000E+00  0.3440E+03
      9.437  0.0000E+00  0.3440E+03
      9.553  0.0000E+00  0.3440E+03
      9.668  0.0000E+00  0.3440E+03
