 vasp.5.4.4.18Apr17-6-g9f103f2a35 (build Dec 06 2019 17:20:26) complex          
  
 executed on             LinuxIFC date 2025.07.03  17:37:51
 running on   40 total cores
 distrk:  each k-point on   40 cores,    1 groups
 distr:  one band on NCORES_PER_BAND=  20 cores,    2 groups


--------------------------------------------------------------------------------------------------------


 INCAR:
 POTCAR:    PAW_PBE O 08Apr2002                   
 POTCAR:    PAW_PBE H 15Jun2001                   

 ----------------------------------------------------------------------------- 
|                                                                             |
|           W    W    AA    RRRRR   N    N  II  N    N   GGGG   !!!           |
|           W    W   A  A   R    R  NN   N  II  NN   N  G    G  !!!           |
|           W    W  A    A  R    R  N N  N  II  N N  N  G       !!!           |
|           W WW W  AAAAAA  RRRRR   N  N N  II  N  N N  G  GGG   !            |
|           WW  WW  A    A  R   R   N   NN  II  N   NN  G    G                |
|           W    W  A    A  R    R  N    N  II  N    N   GGGG   !!!           |
|                                                                             |
|      For optimal performance we recommend to set                            |
|        NCORE= 4 - approx SQRT( number of cores)                             |
|      NCORE specifies how many cores store one orbital (NPAR=cpu/NCORE).     |
|      This setting can  greatly improve the performance of VASP for DFT.     |
|      The default,   NCORE=1            might be grossly inefficient         |
|      on modern multi-core architectures or massively parallel machines.     |
|      Do your own testing !!!!                                               |
|      Unfortunately you need to use the default for GW and RPA calculations. |
|      (for HF NCORE is supported but not extensively tested yet)             |
|                                                                             |
 ----------------------------------------------------------------------------- 

 POTCAR:    PAW_PBE O 08Apr2002                   
  local pseudopotential read in
  partial core-charges read in
  partial kinetic energy density read in
  kinetic energy density of atom read in
  atomic valenz-charges read in
  non local Contribution for L=           0  read in
    real space projection operators read in
  non local Contribution for L=           0  read in
    real space projection operators read in
  non local Contribution for L=           1  read in
    real space projection operators read in
  non local Contribution for L=           1  read in
    real space projection operators read in
    PAW grid and wavefunctions read in
 
   number of l-projection  operators is LMAX  =           4
   number of lm-projection operators is LMMAX =           8
 
 POTCAR:    PAW_PBE H 15Jun2001                   
  local pseudopotential read in
  atomic valenz-charges read in
  non local Contribution for L=           0  read in
    real space projection operators read in
  non local Contribution for L=           0  read in
    real space projection operators read in
  non local Contribution for L=           1  read in
    real space projection operators read in
    PAW grid and wavefunctions read in
 
   number of l-projection  operators is LMAX  =           3
   number of lm-projection operators is LMMAX =           5
 
 Optimization of the real space projectors (new method)

 maximal supplied QI-value         = 24.76
 optimisation between [QCUT,QGAM] = [ 10.15, 20.30] = [ 28.85,115.39] Ry 
 Optimized for a Real-space Cutoff    1.38 Angstroem

   l    n(q)    QCUT    max X(q) W(low)/X(q) W(high)/X(q)  e(spline) 
   0      8    10.150    20.381    0.22E-03    0.32E-03    0.29E-06
   0      8    10.150    15.268    0.23E-03    0.35E-03    0.30E-06
   1      8    10.150     5.964    0.46E-03    0.53E-03    0.21E-06
   1      8    10.150     5.382    0.38E-03    0.45E-03    0.19E-06
 Optimization of the real space projectors (new method)

 maximal supplied QI-value         = 34.20
 optimisation between [QCUT,QGAM] = [  9.92, 20.18] = [ 27.55,114.04] Ry 
 Optimized for a Real-space Cutoff    1.26 Angstroem

   l    n(q)    QCUT    max X(q) W(low)/X(q) W(high)/X(q)  e(spline) 
   0      8     9.919    19.460    0.50E-03    0.23E-03    0.29E-06
   0      8     9.919    12.209    0.48E-03    0.23E-03    0.28E-06
   1      7     9.919     4.655    0.17E-03    0.75E-03    0.30E-06
  PAW_PBE O 08Apr2002                   :
 energy of atom  1       EATOM= -432.3788
 kinetic energy error for atom=    0.1156 (will be added to EATOM!!)
  PAW_PBE H 15Jun2001                   :
 energy of atom  2       EATOM=  -12.4884
 kinetic energy error for atom=    0.0098 (will be added to EATOM!!)
 
 
 POSCAR: # 4                                     
  positions in cartesian coordinates
  No initial velocities read in
 exchange correlation table for  LEXCH =        8
   RHO(1)=    0.500       N(1)  =     2000
   RHO(2)=  100.500       N(2)  =     4000
 


--------------------------------------------------------------------------------------------------------


 ion  position               nearest neighbor table
   1  0.580  0.385  0.130-  32 0.96  33 1.10
   2  0.127  0.811  0.608-  34 0.98  35 1.04
   3  0.086  0.563  0.752-  37 0.96  36 1.02  88 1.41
   4  0.070  0.764  0.167-  38 0.92  39 0.93
   5  0.749  0.019  0.699-  41 0.96  40 1.02
   6  0.720  0.393  0.757-  42 0.95  43 1.07
   7  0.575  0.191  0.791-  45 0.90  44 0.99
   8  0.014  0.214  0.184-  46 0.91  47 1.08
   9  0.280  0.858  0.978-  49 1.02  48 1.11
  10  0.840  0.393  0.022-  50 0.98  51 1.02
  11  0.272  0.213  0.706-  52 0.92  53 0.97
  12  0.963  0.331  0.671-  54 0.95  55 1.03
  13  0.727  0.816  0.871-  56 0.99  57 1.05
  14  0.677  0.044  0.434-  58 0.99  59 1.12
  15  0.346  0.610  0.850-  61 1.07  60 1.12
  16  0.232  0.137  0.951-  63 0.92  62 1.07
  17  0.466  0.141  0.092-  64 0.96  65 0.98
  18  0.683  0.654  0.419-  67 0.94  66 1.15
  19  0.844  0.949  0.237-  69 1.12  68 1.13
  20  0.342  0.363  0.440-  70 0.92  71 1.07
  21  0.413  0.119  0.379-  73 1.04  72 1.04
  22  0.004  0.046  0.631-  75 0.97  74 1.02
  23  0.145  0.036  0.373-  76 1.11  77 1.16
  24  0.374  0.834  0.500-  79 1.02  78 1.04
  25  0.354  0.544  0.113-  80 0.95  81 1.07
  26  0.466  0.735  0.262-  82 0.94  83 0.96
  27  0.555  0.652  0.712-  85 1.01  84 1.02
  28  0.637  0.357  0.399-  87 0.92  86 1.02
  29  0.935  0.654  0.952-  89 1.07  88 1.21
  30  0.602  0.911  0.098-  91 0.91  90 1.07
  31  0.972  0.665  0.399-  93 0.97  92 1.01
  32  0.534  0.470  0.122-   1 0.96
  33  0.678  0.407  0.082-   1 1.10
  34  0.068  0.797  0.529-   2 0.98
  35  0.113  0.725  0.669-   2 1.04
  36  0.049  0.466  0.749-   3 1.02
  37  0.170  0.574  0.801-   3 0.96
  38  0.040  0.850  0.189-   4 0.92
  39  0.049  0.721  0.249-   4 0.93
  40  0.684  0.015  0.619-   5 1.02
  41  0.720  0.939  0.748-   5 0.96
  42  0.677  0.461  0.704-   6 0.95
  43  0.650  0.324  0.806-   6 1.07
  44  0.514  0.167  0.867-   7 0.99
  45  0.626  0.115  0.785-   7 0.90
  46  0.938  0.257  0.150-   8 0.91
  47  0.046  0.258  0.279-   8 1.08
  48  0.249  0.967  0.969-   9 1.11
  49  0.231  0.814  0.058-   9 1.02
  50  0.804  0.400  0.929-  10 0.98
  51  0.861  0.494  0.023-  10 1.02
  52  0.181  0.196  0.691-  11 0.92
  53  0.295  0.274  0.632-  11 0.97
  54  0.986  0.238  0.656-  12 0.95
  55  0.862  0.310  0.688-  12 1.03
  56  0.685  0.845  0.959-  13 0.99
  57  0.793  0.745  0.916-  13 1.05
  58  0.691  0.142  0.414-  14 0.99
  59  0.564  0.050  0.416-  14 1.12
  60  0.358  0.570  0.956-  15 1.12
  61  0.304  0.703  0.888-  15 1.07
  62  0.236  0.193  0.857-  16 1.07
  63  0.166  0.164  0.011-  16 0.92
  64  0.375  0.134  0.058-  17 0.96
  65  0.476  0.237  0.116-  17 0.98
  66  0.637  0.630  0.524-  18 1.15
  67  0.605  0.673  0.367-  18 0.94
  68  0.904  0.033  0.185-  19 1.13
  69  0.757  0.982  0.304-  19 1.12
  70  0.409  0.422  0.468-  20 0.92
  71  0.390  0.267  0.421-  20 1.07
  72  0.310  0.098  0.364-  21 1.04
  73  0.429  0.105  0.275-  21 1.04
  74  0.903  0.022  0.643-  22 1.02
  75  0.062  0.965  0.630-  22 0.97
  76  0.068  0.036  0.291-  23 1.11
  77  0.075  0.049  0.467-  23 1.16
  78  0.292  0.798  0.557-  24 1.04
  79  0.445  0.815  0.573-  24 1.02
  80  0.394  0.618  0.158-  25 0.95
  81  0.292  0.473  0.168-  25 1.07
  82  0.431  0.755  0.349-  26 0.94
  83  0.487  0.807  0.199-  26 0.96
  84  0.598  0.691  0.798-  27 1.02
  85  0.463  0.640  0.756-  27 1.01
  86  0.618  0.377  0.299-  28 1.02
  87  0.670  0.444  0.397-  28 0.92
  88  0.007  0.619  0.859-  29 1.21   3 1.41
  89  0.990  0.708  0.028-  29 1.07
  90  0.557  0.010  0.089-  30 1.07
  91  0.690  0.918  0.125-  30 0.91
  92  0.870  0.653  0.408-  31 1.01
  93  0.005  0.572  0.407-  31 0.97
 
  LATTYP: Found a simple cubic cell.
 ALAT       =     9.8149000000
  
  Lattice vectors:
  
 A1 = (   9.8149000000,   0.0000000000,   0.0000000000)
 A2 = (   0.0000000000,   9.8149000000,   0.0000000000)
 A3 = (   0.0000000000,   0.0000000000,   9.8149000000)


Analysis of symmetry for initial positions (statically):
=====================================================================
 Subroutine PRICEL returns:
 Original cell was already a primitive cell.
 

 Routine SETGRP: Setting up the symmetry group for a 
 simple cubic supercell.


 Subroutine GETGRP returns: Found  1 space group operations
 (whereof  1 operations were pure point group operations)
 out of a pool of 48 trial point group operations.


The static configuration has the point symmetry C_1 .


Analysis of symmetry for dynamics (positions and initial velocities):
=====================================================================
 Subroutine PRICEL returns:
 Original cell was already a primitive cell.
 

 Routine SETGRP: Setting up the symmetry group for a 
 simple cubic supercell.


 Subroutine GETGRP returns: Found  1 space group operations
 (whereof  1 operations were pure point group operations)
 out of a pool of 48 trial point group operations.


The dynamic configuration has the point symmetry C_1 .


 Subroutine INISYM returns: Found  1 space group operations
 (whereof  1 operations are pure point group operations),
 and found     1 'primitive' translations

 
 
 KPOINTS: automatic mesh                          

Automatic generation of k-mesh.
Space group operators:
 irot       det(A)        alpha          n_x          n_y          n_z        tau_x        tau_y        tau_z
    1     1.000000     0.000000     1.000000     0.000000     0.000000     0.000000     0.000000     0.000000
 
 Subroutine IBZKPT returns following result:
 ===========================================
 
 Found    504 irreducible k-points:
 
 Following reciprocal coordinates:
            Coordinates               Weight
  0.000000  0.000000  0.000000      1.000000
  0.100000  0.000000  0.000000      2.000000
  0.200000  0.000000  0.000000      2.000000
  0.300000  0.000000  0.000000      2.000000
  0.400000  0.000000  0.000000      2.000000
  0.500000  0.000000  0.000000      1.000000
  0.000000  0.100000  0.000000      2.000000
  0.100000  0.100000  0.000000      2.000000
  0.200000  0.100000  0.000000      2.000000
  0.300000  0.100000  0.000000      2.000000
  0.400000  0.100000  0.000000      2.000000
  0.500000  0.100000  0.000000      2.000000
 -0.400000  0.100000  0.000000      2.000000
 -0.300000  0.100000  0.000000      2.000000
 -0.200000  0.100000  0.000000      2.000000
 -0.100000  0.100000  0.000000      2.000000
  0.000000  0.200000  0.000000      2.000000
  0.100000  0.200000  0.000000      2.000000
  0.200000  0.200000  0.000000      2.000000
  0.300000  0.200000  0.000000      2.000000
  0.400000  0.200000  0.000000      2.000000
  0.500000  0.200000  0.000000      2.000000
 -0.400000  0.200000  0.000000      2.000000
 -0.300000  0.200000  0.000000      2.000000
 -0.200000  0.200000  0.000000      2.000000
 -0.100000  0.200000  0.000000      2.000000
  0.000000  0.300000  0.000000      2.000000
  0.100000  0.300000  0.000000      2.000000
  0.200000  0.300000  0.000000      2.000000
  0.300000  0.300000  0.000000      2.000000
  0.400000  0.300000  0.000000      2.000000
  0.500000  0.300000  0.000000      2.000000
 -0.400000  0.300000  0.000000      2.000000
 -0.300000  0.300000  0.000000      2.000000
 -0.200000  0.300000  0.000000      2.000000
 -0.100000  0.300000  0.000000      2.000000
  0.000000  0.400000  0.000000      2.000000
  0.100000  0.400000  0.000000      2.000000
  0.200000  0.400000  0.000000      2.000000
  0.300000  0.400000  0.000000      2.000000
  0.400000  0.400000  0.000000      2.000000
  0.500000  0.400000  0.000000      2.000000
 -0.400000  0.400000  0.000000      2.000000
 -0.300000  0.400000  0.000000      2.000000
 -0.200000  0.400000  0.000000      2.000000
 -0.100000  0.400000  0.000000      2.000000
  0.000000  0.500000  0.000000      1.000000
  0.100000  0.500000  0.000000      2.000000
  0.200000  0.500000  0.000000      2.000000
  0.300000  0.500000  0.000000      2.000000
  0.400000  0.500000  0.000000      2.000000
  0.500000  0.500000  0.000000      1.000000
  0.000000  0.000000  0.100000      2.000000
  0.100000  0.000000  0.100000      2.000000
  0.200000  0.000000  0.100000      2.000000
  0.300000  0.000000  0.100000      2.000000
  0.400000  0.000000  0.100000      2.000000
  0.500000  0.000000  0.100000      2.000000
 -0.400000  0.000000  0.100000      2.000000
 -0.300000  0.000000  0.100000      2.000000
 -0.200000  0.000000  0.100000      2.000000
 -0.100000  0.000000  0.100000      2.000000
  0.000000  0.100000  0.100000      2.000000
  0.100000  0.100000  0.100000      2.000000
  0.200000  0.100000  0.100000      2.000000
  0.300000  0.100000  0.100000      2.000000
  0.400000  0.100000  0.100000      2.000000
  0.500000  0.100000  0.100000      2.000000
 -0.400000  0.100000  0.100000      2.000000
 -0.300000  0.100000  0.100000      2.000000
 -0.200000  0.100000  0.100000      2.000000
 -0.100000  0.100000  0.100000      2.000000
  0.000000  0.200000  0.100000      2.000000
  0.100000  0.200000  0.100000      2.000000
  0.200000  0.200000  0.100000      2.000000
  0.300000  0.200000  0.100000      2.000000
  0.400000  0.200000  0.100000      2.000000
  0.500000  0.200000  0.100000      2.000000
 -0.400000  0.200000  0.100000      2.000000
 -0.300000  0.200000  0.100000      2.000000
 -0.200000  0.200000  0.100000      2.000000
 -0.100000  0.200000  0.100000      2.000000
  0.000000  0.300000  0.100000      2.000000
  0.100000  0.300000  0.100000      2.000000
  0.200000  0.300000  0.100000      2.000000
  0.300000  0.300000  0.100000      2.000000
  0.400000  0.300000  0.100000      2.000000
  0.500000  0.300000  0.100000      2.000000
 -0.400000  0.300000  0.100000      2.000000
 -0.300000  0.300000  0.100000      2.000000
 -0.200000  0.300000  0.100000      2.000000
 -0.100000  0.300000  0.100000      2.000000
  0.000000  0.400000  0.100000      2.000000
  0.100000  0.400000  0.100000      2.000000
  0.200000  0.400000  0.100000      2.000000
  0.300000  0.400000  0.100000      2.000000
  0.400000  0.400000  0.100000      2.000000
  0.500000  0.400000  0.100000      2.000000
 -0.400000  0.400000  0.100000      2.000000
 -0.300000  0.400000  0.100000      2.000000
 -0.200000  0.400000  0.100000      2.000000
 -0.100000  0.400000  0.100000      2.000000
  0.000000  0.500000  0.100000      2.000000
  0.100000  0.500000  0.100000      2.000000
  0.200000  0.500000  0.100000      2.000000
  0.300000  0.500000  0.100000      2.000000
  0.400000  0.500000  0.100000      2.000000
  0.500000  0.500000  0.100000      2.000000
 -0.400000  0.500000  0.100000      2.000000
 -0.300000  0.500000  0.100000      2.000000
 -0.200000  0.500000  0.100000      2.000000
 -0.100000  0.500000  0.100000      2.000000
  0.000000 -0.400000  0.100000      2.000000
  0.100000 -0.400000  0.100000      2.000000
  0.200000 -0.400000  0.100000      2.000000
  0.300000 -0.400000  0.100000      2.000000
  0.400000 -0.400000  0.100000      2.000000
  0.500000 -0.400000  0.100000      2.000000
 -0.400000 -0.400000  0.100000      2.000000
 -0.300000 -0.400000  0.100000      2.000000
 -0.200000 -0.400000  0.100000      2.000000
 -0.100000 -0.400000  0.100000      2.000000
  0.000000 -0.300000  0.100000      2.000000
  0.100000 -0.300000  0.100000      2.000000
  0.200000 -0.300000  0.100000      2.000000
  0.300000 -0.300000  0.100000      2.000000
  0.400000 -0.300000  0.100000      2.000000
  0.500000 -0.300000  0.100000      2.000000
 -0.400000 -0.300000  0.100000      2.000000
 -0.300000 -0.300000  0.100000      2.000000
 -0.200000 -0.300000  0.100000      2.000000
 -0.100000 -0.300000  0.100000      2.000000
  0.000000 -0.200000  0.100000      2.000000
  0.100000 -0.200000  0.100000      2.000000
  0.200000 -0.200000  0.100000      2.000000
  0.300000 -0.200000  0.100000      2.000000
  0.400000 -0.200000  0.100000      2.000000
  0.500000 -0.200000  0.100000      2.000000
 -0.400000 -0.200000  0.100000      2.000000
 -0.300000 -0.200000  0.100000      2.000000
 -0.200000 -0.200000  0.100000      2.000000
 -0.100000 -0.200000  0.100000      2.000000
  0.000000 -0.100000  0.100000      2.000000
  0.100000 -0.100000  0.100000      2.000000
  0.200000 -0.100000  0.100000      2.000000
  0.300000 -0.100000  0.100000      2.000000
  0.400000 -0.100000  0.100000      2.000000
  0.500000 -0.100000  0.100000      2.000000
 -0.400000 -0.100000  0.100000      2.000000
 -0.300000 -0.100000  0.100000      2.000000
 -0.200000 -0.100000  0.100000      2.000000
 -0.100000 -0.100000  0.100000      2.000000
  0.000000  0.000000  0.200000      2.000000
  0.100000  0.000000  0.200000      2.000000
  0.200000  0.000000  0.200000      2.000000
  0.300000  0.000000  0.200000      2.000000
  0.400000  0.000000  0.200000      2.000000
  0.500000  0.000000  0.200000      2.000000
 -0.400000  0.000000  0.200000      2.000000
 -0.300000  0.000000  0.200000      2.000000
 -0.200000  0.000000  0.200000      2.000000
 -0.100000  0.000000  0.200000      2.000000
  0.000000  0.100000  0.200000      2.000000
  0.100000  0.100000  0.200000      2.000000
  0.200000  0.100000  0.200000      2.000000
  0.300000  0.100000  0.200000      2.000000
  0.400000  0.100000  0.200000      2.000000
  0.500000  0.100000  0.200000      2.000000
 -0.400000  0.100000  0.200000      2.000000
 -0.300000  0.100000  0.200000      2.000000
 -0.200000  0.100000  0.200000      2.000000
 -0.100000  0.100000  0.200000      2.000000
  0.000000  0.200000  0.200000      2.000000
  0.100000  0.200000  0.200000      2.000000
  0.200000  0.200000  0.200000      2.000000
  0.300000  0.200000  0.200000      2.000000
  0.400000  0.200000  0.200000      2.000000
  0.500000  0.200000  0.200000      2.000000
 -0.400000  0.200000  0.200000      2.000000
 -0.300000  0.200000  0.200000      2.000000
 -0.200000  0.200000  0.200000      2.000000
 -0.100000  0.200000  0.200000      2.000000
  0.000000  0.300000  0.200000      2.000000
  0.100000  0.300000  0.200000      2.000000
  0.200000  0.300000  0.200000      2.000000
  0.300000  0.300000  0.200000      2.000000
  0.400000  0.300000  0.200000      2.000000
  0.500000  0.300000  0.200000      2.000000
 -0.400000  0.300000  0.200000      2.000000
 -0.300000  0.300000  0.200000      2.000000
 -0.200000  0.300000  0.200000      2.000000
 -0.100000  0.300000  0.200000      2.000000
  0.000000  0.400000  0.200000      2.000000
  0.100000  0.400000  0.200000      2.000000
  0.200000  0.400000  0.200000      2.000000
  0.300000  0.400000  0.200000      2.000000
  0.400000  0.400000  0.200000      2.000000
  0.500000  0.400000  0.200000      2.000000
 -0.400000  0.400000  0.200000      2.000000
 -0.300000  0.400000  0.200000      2.000000
 -0.200000  0.400000  0.200000      2.000000
 -0.100000  0.400000  0.200000      2.000000
  0.000000  0.500000  0.200000      2.000000
  0.100000  0.500000  0.200000      2.000000
  0.200000  0.500000  0.200000      2.000000
  0.300000  0.500000  0.200000      2.000000
  0.400000  0.500000  0.200000      2.000000
  0.500000  0.500000  0.200000      2.000000
 -0.400000  0.500000  0.200000      2.000000
 -0.300000  0.500000  0.200000      2.000000
 -0.200000  0.500000  0.200000      2.000000
 -0.100000  0.500000  0.200000      2.000000
  0.000000 -0.400000  0.200000      2.000000
  0.100000 -0.400000  0.200000      2.000000
  0.200000 -0.400000  0.200000      2.000000
  0.300000 -0.400000  0.200000      2.000000
  0.400000 -0.400000  0.200000      2.000000
  0.500000 -0.400000  0.200000      2.000000
 -0.400000 -0.400000  0.200000      2.000000
 -0.300000 -0.400000  0.200000      2.000000
 -0.200000 -0.400000  0.200000      2.000000
 -0.100000 -0.400000  0.200000      2.000000
  0.000000 -0.300000  0.200000      2.000000
  0.100000 -0.300000  0.200000      2.000000
  0.200000 -0.300000  0.200000      2.000000
  0.300000 -0.300000  0.200000      2.000000
  0.400000 -0.300000  0.200000      2.000000
  0.500000 -0.300000  0.200000      2.000000
 -0.400000 -0.300000  0.200000      2.000000
 -0.300000 -0.300000  0.200000      2.000000
 -0.200000 -0.300000  0.200000      2.000000
 -0.100000 -0.300000  0.200000      2.000000
  0.000000 -0.200000  0.200000      2.000000
  0.100000 -0.200000  0.200000      2.000000
  0.200000 -0.200000  0.200000      2.000000
  0.300000 -0.200000  0.200000      2.000000
  0.400000 -0.200000  0.200000      2.000000
  0.500000 -0.200000  0.200000      2.000000
 -0.400000 -0.200000  0.200000      2.000000
 -0.300000 -0.200000  0.200000      2.000000
 -0.200000 -0.200000  0.200000      2.000000
 -0.100000 -0.200000  0.200000      2.000000
  0.000000 -0.100000  0.200000      2.000000
  0.100000 -0.100000  0.200000      2.000000
  0.200000 -0.100000  0.200000      2.000000
  0.300000 -0.100000  0.200000      2.000000
  0.400000 -0.100000  0.200000      2.000000
  0.500000 -0.100000  0.200000      2.000000
 -0.400000 -0.100000  0.200000      2.000000
 -0.300000 -0.100000  0.200000      2.000000
 -0.200000 -0.100000  0.200000      2.000000
 -0.100000 -0.100000  0.200000      2.000000
  0.000000  0.000000  0.300000      2.000000
  0.100000  0.000000  0.300000      2.000000
  0.200000  0.000000  0.300000      2.000000
  0.300000  0.000000  0.300000      2.000000
  0.400000  0.000000  0.300000      2.000000
  0.500000  0.000000  0.300000      2.000000
 -0.400000  0.000000  0.300000      2.000000
 -0.300000  0.000000  0.300000      2.000000
 -0.200000  0.000000  0.300000      2.000000
 -0.100000  0.000000  0.300000      2.000000
  0.000000  0.100000  0.300000      2.000000
  0.100000  0.100000  0.300000      2.000000
  0.200000  0.100000  0.300000      2.000000
  0.300000  0.100000  0.300000      2.000000
  0.400000  0.100000  0.300000      2.000000
  0.500000  0.100000  0.300000      2.000000
 -0.400000  0.100000  0.300000      2.000000
 -0.300000  0.100000  0.300000      2.000000
 -0.200000  0.100000  0.300000      2.000000
 -0.100000  0.100000  0.300000      2.000000
  0.000000  0.200000  0.300000      2.000000
  0.100000  0.200000  0.300000      2.000000
  0.200000  0.200000  0.300000      2.000000
  0.300000  0.200000  0.300000      2.000000
  0.400000  0.200000  0.300000      2.000000
  0.500000  0.200000  0.300000      2.000000
 -0.400000  0.200000  0.300000      2.000000
 -0.300000  0.200000  0.300000      2.000000
 -0.200000  0.200000  0.300000      2.000000
 -0.100000  0.200000  0.300000      2.000000
  0.000000  0.300000  0.300000      2.000000
  0.100000  0.300000  0.300000      2.000000
  0.200000  0.300000  0.300000      2.000000
  0.300000  0.300000  0.300000      2.000000
  0.400000  0.300000  0.300000      2.000000
  0.500000  0.300000  0.300000      2.000000
 -0.400000  0.300000  0.300000      2.000000
 -0.300000  0.300000  0.300000      2.000000
 -0.200000  0.300000  0.300000      2.000000
 -0.100000  0.300000  0.300000      2.000000
  0.000000  0.400000  0.300000      2.000000
  0.100000  0.400000  0.300000      2.000000
  0.200000  0.400000  0.300000      2.000000
  0.300000  0.400000  0.300000      2.000000
  0.400000  0.400000  0.300000      2.000000
  0.500000  0.400000  0.300000      2.000000
 -0.400000  0.400000  0.300000      2.000000
 -0.300000  0.400000  0.300000      2.000000
 -0.200000  0.400000  0.300000      2.000000
 -0.100000  0.400000  0.300000      2.000000
  0.000000  0.500000  0.300000      2.000000
  0.100000  0.500000  0.300000      2.000000
  0.200000  0.500000  0.300000      2.000000
  0.300000  0.500000  0.300000      2.000000
  0.400000  0.500000  0.300000      2.000000
  0.500000  0.500000  0.300000      2.000000
 -0.400000  0.500000  0.300000      2.000000
 -0.300000  0.500000  0.300000      2.000000
 -0.200000  0.500000  0.300000      2.000000
 -0.100000  0.500000  0.300000      2.000000
  0.000000 -0.400000  0.300000      2.000000
  0.100000 -0.400000  0.300000      2.000000
  0.200000 -0.400000  0.300000      2.000000
  0.300000 -0.400000  0.300000      2.000000
  0.400000 -0.400000  0.300000      2.000000
  0.500000 -0.400000  0.300000      2.000000
 -0.400000 -0.400000  0.300000      2.000000
 -0.300000 -0.400000  0.300000      2.000000
 -0.200000 -0.400000  0.300000      2.000000
 -0.100000 -0.400000  0.300000      2.000000
  0.000000 -0.300000  0.300000      2.000000
  0.100000 -0.300000  0.300000      2.000000
  0.200000 -0.300000  0.300000      2.000000
  0.300000 -0.300000  0.300000      2.000000
  0.400000 -0.300000  0.300000      2.000000
  0.500000 -0.300000  0.300000      2.000000
 -0.400000 -0.300000  0.300000      2.000000
 -0.300000 -0.300000  0.300000      2.000000
 -0.200000 -0.300000  0.300000      2.000000
 -0.100000 -0.300000  0.300000      2.000000
  0.000000 -0.200000  0.300000      2.000000
  0.100000 -0.200000  0.300000      2.000000
  0.200000 -0.200000  0.300000      2.000000
  0.300000 -0.200000  0.300000      2.000000
  0.400000 -0.200000  0.300000      2.000000
  0.500000 -0.200000  0.300000      2.000000
 -0.400000 -0.200000  0.300000      2.000000
 -0.300000 -0.200000  0.300000      2.000000
 -0.200000 -0.200000  0.300000      2.000000
 -0.100000 -0.200000  0.300000      2.000000
  0.000000 -0.100000  0.300000      2.000000
  0.100000 -0.100000  0.300000      2.000000
  0.200000 -0.100000  0.300000      2.000000
  0.300000 -0.100000  0.300000      2.000000
  0.400000 -0.100000  0.300000      2.000000
  0.500000 -0.100000  0.300000      2.000000
 -0.400000 -0.100000  0.300000      2.000000
 -0.300000 -0.100000  0.300000      2.000000
 -0.200000 -0.100000  0.300000      2.000000
 -0.100000 -0.100000  0.300000      2.000000
  0.000000  0.000000  0.400000      2.000000
  0.100000  0.000000  0.400000      2.000000
  0.200000  0.000000  0.400000      2.000000
  0.300000  0.000000  0.400000      2.000000
  0.400000  0.000000  0.400000      2.000000
  0.500000  0.000000  0.400000      2.000000
 -0.400000  0.000000  0.400000      2.000000
 -0.300000  0.000000  0.400000      2.000000
 -0.200000  0.000000  0.400000      2.000000
 -0.100000  0.000000  0.400000      2.000000
  0.000000  0.100000  0.400000      2.000000
  0.100000  0.100000  0.400000      2.000000
  0.200000  0.100000  0.400000      2.000000
  0.300000  0.100000  0.400000      2.000000
  0.400000  0.100000  0.400000      2.000000
  0.500000  0.100000  0.400000      2.000000
 -0.400000  0.100000  0.400000      2.000000
 -0.300000  0.100000  0.400000      2.000000
 -0.200000  0.100000  0.400000      2.000000
 -0.100000  0.100000  0.400000      2.000000
  0.000000  0.200000  0.400000      2.000000
  0.100000  0.200000  0.400000      2.000000
  0.200000  0.200000  0.400000      2.000000
  0.300000  0.200000  0.400000      2.000000
  0.400000  0.200000  0.400000      2.000000
  0.500000  0.200000  0.400000      2.000000
 -0.400000  0.200000  0.400000      2.000000
 -0.300000  0.200000  0.400000      2.000000
 -0.200000  0.200000  0.400000      2.000000
 -0.100000  0.200000  0.400000      2.000000
  0.000000  0.300000  0.400000      2.000000
  0.100000  0.300000  0.400000      2.000000
  0.200000  0.300000  0.400000      2.000000
  0.300000  0.300000  0.400000      2.000000
  0.400000  0.300000  0.400000      2.000000
  0.500000  0.300000  0.400000      2.000000
 -0.400000  0.300000  0.400000      2.000000
 -0.300000  0.300000  0.400000      2.000000
 -0.200000  0.300000  0.400000      2.000000
 -0.100000  0.300000  0.400000      2.000000
  0.000000  0.400000  0.400000      2.000000
  0.100000  0.400000  0.400000      2.000000
  0.200000  0.400000  0.400000      2.000000
  0.300000  0.400000  0.400000      2.000000
  0.400000  0.400000  0.400000      2.000000
  0.500000  0.400000  0.400000      2.000000
 -0.400000  0.400000  0.400000      2.000000
 -0.300000  0.400000  0.400000      2.000000
 -0.200000  0.400000  0.400000      2.000000
 -0.100000  0.400000  0.400000      2.000000
  0.000000  0.500000  0.400000      2.000000
  0.100000  0.500000  0.400000      2.000000
  0.200000  0.500000  0.400000      2.000000
  0.300000  0.500000  0.400000      2.000000
  0.400000  0.500000  0.400000      2.000000
  0.500000  0.500000  0.400000      2.000000
 -0.400000  0.500000  0.400000      2.000000
 -0.300000  0.500000  0.400000      2.000000
 -0.200000  0.500000  0.400000      2.000000
 -0.100000  0.500000  0.400000      2.000000
  0.000000 -0.400000  0.400000      2.000000
  0.100000 -0.400000  0.400000      2.000000
  0.200000 -0.400000  0.400000      2.000000
  0.300000 -0.400000  0.400000      2.000000
  0.400000 -0.400000  0.400000      2.000000
  0.500000 -0.400000  0.400000      2.000000
 -0.400000 -0.400000  0.400000      2.000000
 -0.300000 -0.400000  0.400000      2.000000
 -0.200000 -0.400000  0.400000      2.000000
 -0.100000 -0.400000  0.400000      2.000000
  0.000000 -0.300000  0.400000      2.000000
  0.100000 -0.300000  0.400000      2.000000
  0.200000 -0.300000  0.400000      2.000000
  0.300000 -0.300000  0.400000      2.000000
  0.400000 -0.300000  0.400000      2.000000
  0.500000 -0.300000  0.400000      2.000000
 -0.400000 -0.300000  0.400000      2.000000
 -0.300000 -0.300000  0.400000      2.000000
 -0.200000 -0.300000  0.400000      2.000000
 -0.100000 -0.300000  0.400000      2.000000
  0.000000 -0.200000  0.400000      2.000000
  0.100000 -0.200000  0.400000      2.000000
  0.200000 -0.200000  0.400000      2.000000
  0.300000 -0.200000  0.400000      2.000000
  0.400000 -0.200000  0.400000      2.000000
  0.500000 -0.200000  0.400000      2.000000
 -0.400000 -0.200000  0.400000      2.000000
 -0.300000 -0.200000  0.400000      2.000000
 -0.200000 -0.200000  0.400000      2.000000
 -0.100000 -0.200000  0.400000      2.000000
  0.000000 -0.100000  0.400000      2.000000
  0.100000 -0.100000  0.400000      2.000000
  0.200000 -0.100000  0.400000      2.000000
  0.300000 -0.100000  0.400000      2.000000
  0.400000 -0.100000  0.400000      2.000000
  0.500000 -0.100000  0.400000      2.000000
 -0.400000 -0.100000  0.400000      2.000000
 -0.300000 -0.100000  0.400000      2.000000
 -0.200000 -0.100000  0.400000      2.000000
 -0.100000 -0.100000  0.400000      2.000000
  0.000000  0.000000  0.500000      1.000000
  0.100000  0.000000  0.500000      2.000000
  0.200000  0.000000  0.500000      2.000000
  0.300000  0.000000  0.500000      2.000000
  0.400000  0.000000  0.500000      2.000000
  0.500000  0.000000  0.500000      1.000000
  0.000000  0.100000  0.500000      2.000000
  0.100000  0.100000  0.500000      2.000000
  0.200000  0.100000  0.500000      2.000000
  0.300000  0.100000  0.500000      2.000000
  0.400000  0.100000  0.500000      2.000000
  0.500000  0.100000  0.500000      2.000000
 -0.400000  0.100000  0.500000      2.000000
 -0.300000  0.100000  0.500000      2.000000
 -0.200000  0.100000  0.500000      2.000000
 -0.100000  0.100000  0.500000      2.000000
  0.000000  0.200000  0.500000      2.000000
  0.100000  0.200000  0.500000      2.000000
  0.200000  0.200000  0.500000      2.000000
  0.300000  0.200000  0.500000      2.000000
  0.400000  0.200000  0.500000      2.000000
  0.500000  0.200000  0.500000      2.000000
 -0.400000  0.200000  0.500000      2.000000
 -0.300000  0.200000  0.500000      2.000000
 -0.200000  0.200000  0.500000      2.000000
 -0.100000  0.200000  0.500000      2.000000
  0.000000  0.300000  0.500000      2.000000
  0.100000  0.300000  0.500000      2.000000
  0.200000  0.300000  0.500000      2.000000
  0.300000  0.300000  0.500000      2.000000
  0.400000  0.300000  0.500000      2.000000
  0.500000  0.300000  0.500000      2.000000
 -0.400000  0.300000  0.500000      2.000000
 -0.300000  0.300000  0.500000      2.000000
 -0.200000  0.300000  0.500000      2.000000
 -0.100000  0.300000  0.500000      2.000000
  0.000000  0.400000  0.500000      2.000000
  0.100000  0.400000  0.500000      2.000000
  0.200000  0.400000  0.500000      2.000000
  0.300000  0.400000  0.500000      2.000000
  0.400000  0.400000  0.500000      2.000000
  0.500000  0.400000  0.500000      2.000000
 -0.400000  0.400000  0.500000      2.000000
 -0.300000  0.400000  0.500000      2.000000
 -0.200000  0.400000  0.500000      2.000000
 -0.100000  0.400000  0.500000      2.000000
  0.000000  0.500000  0.500000      1.000000
  0.100000  0.500000  0.500000      2.000000
  0.200000  0.500000  0.500000      2.000000
  0.300000  0.500000  0.500000      2.000000
  0.400000  0.500000  0.500000      2.000000
  0.500000  0.500000  0.500000      1.000000
 
 Following cartesian coordinates:
            Coordinates               Weight
  0.000000  0.000000  0.000000      1.000000
  0.010189  0.000000  0.000000      2.000000
  0.020377  0.000000  0.000000      2.000000
  0.030566  0.000000  0.000000      2.000000
  0.040754  0.000000  0.000000      2.000000
  0.050943  0.000000  0.000000      1.000000
  0.000000  0.010189  0.000000      2.000000
  0.010189  0.010189  0.000000      2.000000
  0.020377  0.010189  0.000000      2.000000
  0.030566  0.010189  0.000000      2.000000
  0.040754  0.010189  0.000000      2.000000
  0.050943  0.010189  0.000000      2.000000
 -0.040754  0.010189  0.000000      2.000000
 -0.030566  0.010189  0.000000      2.000000
 -0.020377  0.010189  0.000000      2.000000
 -0.010189  0.010189  0.000000      2.000000
  0.000000  0.020377  0.000000      2.000000
  0.010189  0.020377  0.000000      2.000000
  0.020377  0.020377  0.000000      2.000000
  0.030566  0.020377  0.000000      2.000000
  0.040754  0.020377  0.000000      2.000000
  0.050943  0.020377  0.000000      2.000000
 -0.040754  0.020377  0.000000      2.000000
 -0.030566  0.020377  0.000000      2.000000
 -0.020377  0.020377  0.000000      2.000000
 -0.010189  0.020377  0.000000      2.000000
  0.000000  0.030566  0.000000      2.000000
  0.010189  0.030566  0.000000      2.000000
  0.020377  0.030566  0.000000      2.000000
  0.030566  0.030566  0.000000      2.000000
  0.040754  0.030566  0.000000      2.000000
  0.050943  0.030566  0.000000      2.000000
 -0.040754  0.030566  0.000000      2.000000
 -0.030566  0.030566  0.000000      2.000000
 -0.020377  0.030566  0.000000      2.000000
 -0.010189  0.030566  0.000000      2.000000
  0.000000  0.040754  0.000000      2.000000
  0.010189  0.040754  0.000000      2.000000
  0.020377  0.040754  0.000000      2.000000
  0.030566  0.040754  0.000000      2.000000
  0.040754  0.040754  0.000000      2.000000
  0.050943  0.040754  0.000000      2.000000
 -0.040754  0.040754  0.000000      2.000000
 -0.030566  0.040754  0.000000      2.000000
 -0.020377  0.040754  0.000000      2.000000
 -0.010189  0.040754  0.000000      2.000000
  0.000000  0.050943  0.000000      1.000000
  0.010189  0.050943  0.000000      2.000000
  0.020377  0.050943  0.000000      2.000000
  0.030566  0.050943  0.000000      2.000000
  0.040754  0.050943  0.000000      2.000000
  0.050943  0.050943  0.000000      1.000000
  0.000000  0.000000  0.010189      2.000000
  0.010189  0.000000  0.010189      2.000000
  0.020377  0.000000  0.010189      2.000000
  0.030566  0.000000  0.010189      2.000000
  0.040754  0.000000  0.010189      2.000000
  0.050943  0.000000  0.010189      2.000000
 -0.040754  0.000000  0.010189      2.000000
 -0.030566  0.000000  0.010189      2.000000
 -0.020377  0.000000  0.010189      2.000000
 -0.010189  0.000000  0.010189      2.000000
  0.000000  0.010189  0.010189      2.000000
  0.010189  0.010189  0.010189      2.000000
  0.020377  0.010189  0.010189      2.000000
  0.030566  0.010189  0.010189      2.000000
  0.040754  0.010189  0.010189      2.000000
  0.050943  0.010189  0.010189      2.000000
 -0.040754  0.010189  0.010189      2.000000
 -0.030566  0.010189  0.010189      2.000000
 -0.020377  0.010189  0.010189      2.000000
 -0.010189  0.010189  0.010189      2.000000
  0.000000  0.020377  0.010189      2.000000
  0.010189  0.020377  0.010189      2.000000
  0.020377  0.020377  0.010189      2.000000
  0.030566  0.020377  0.010189      2.000000
  0.040754  0.020377  0.010189      2.000000
  0.050943  0.020377  0.010189      2.000000
 -0.040754  0.020377  0.010189      2.000000
 -0.030566  0.020377  0.010189      2.000000
 -0.020377  0.020377  0.010189      2.000000
 -0.010189  0.020377  0.010189      2.000000
  0.000000  0.030566  0.010189      2.000000
  0.010189  0.030566  0.010189      2.000000
  0.020377  0.030566  0.010189      2.000000
  0.030566  0.030566  0.010189      2.000000
  0.040754  0.030566  0.010189      2.000000
  0.050943  0.030566  0.010189      2.000000
 -0.040754  0.030566  0.010189      2.000000
 -0.030566  0.030566  0.010189      2.000000
 -0.020377  0.030566  0.010189      2.000000
 -0.010189  0.030566  0.010189      2.000000
  0.000000  0.040754  0.010189      2.000000
  0.010189  0.040754  0.010189      2.000000
  0.020377  0.040754  0.010189      2.000000
  0.030566  0.040754  0.010189      2.000000
  0.040754  0.040754  0.010189      2.000000
  0.050943  0.040754  0.010189      2.000000
 -0.040754  0.040754  0.010189      2.000000
 -0.030566  0.040754  0.010189      2.000000
 -0.020377  0.040754  0.010189      2.000000
 -0.010189  0.040754  0.010189      2.000000
  0.000000  0.050943  0.010189      2.000000
  0.010189  0.050943  0.010189      2.000000
  0.020377  0.050943  0.010189      2.000000
  0.030566  0.050943  0.010189      2.000000
  0.040754  0.050943  0.010189      2.000000
  0.050943  0.050943  0.010189      2.000000
 -0.040754  0.050943  0.010189      2.000000
 -0.030566  0.050943  0.010189      2.000000
 -0.020377  0.050943  0.010189      2.000000
 -0.010189  0.050943  0.010189      2.000000
  0.000000 -0.040754  0.010189      2.000000
  0.010189 -0.040754  0.010189      2.000000
  0.020377 -0.040754  0.010189      2.000000
  0.030566 -0.040754  0.010189      2.000000
  0.040754 -0.040754  0.010189      2.000000
  0.050943 -0.040754  0.010189      2.000000
 -0.040754 -0.040754  0.010189      2.000000
 -0.030566 -0.040754  0.010189      2.000000
 -0.020377 -0.040754  0.010189      2.000000
 -0.010189 -0.040754  0.010189      2.000000
  0.000000 -0.030566  0.010189      2.000000
  0.010189 -0.030566  0.010189      2.000000
  0.020377 -0.030566  0.010189      2.000000
  0.030566 -0.030566  0.010189      2.000000
  0.040754 -0.030566  0.010189      2.000000
  0.050943 -0.030566  0.010189      2.000000
 -0.040754 -0.030566  0.010189      2.000000
 -0.030566 -0.030566  0.010189      2.000000
 -0.020377 -0.030566  0.010189      2.000000
 -0.010189 -0.030566  0.010189      2.000000
  0.000000 -0.020377  0.010189      2.000000
  0.010189 -0.020377  0.010189      2.000000
  0.020377 -0.020377  0.010189      2.000000
  0.030566 -0.020377  0.010189      2.000000
  0.040754 -0.020377  0.010189      2.000000
  0.050943 -0.020377  0.010189      2.000000
 -0.040754 -0.020377  0.010189      2.000000
 -0.030566 -0.020377  0.010189      2.000000
 -0.020377 -0.020377  0.010189      2.000000
 -0.010189 -0.020377  0.010189      2.000000
  0.000000 -0.010189  0.010189      2.000000
  0.010189 -0.010189  0.010189      2.000000
  0.020377 -0.010189  0.010189      2.000000
  0.030566 -0.010189  0.010189      2.000000
  0.040754 -0.010189  0.010189      2.000000
  0.050943 -0.010189  0.010189      2.000000
 -0.040754 -0.010189  0.010189      2.000000
 -0.030566 -0.010189  0.010189      2.000000
 -0.020377 -0.010189  0.010189      2.000000
 -0.010189 -0.010189  0.010189      2.000000
  0.000000  0.000000  0.020377      2.000000
  0.010189  0.000000  0.020377      2.000000
  0.020377  0.000000  0.020377      2.000000
  0.030566  0.000000  0.020377      2.000000
  0.040754  0.000000  0.020377      2.000000
  0.050943  0.000000  0.020377      2.000000
 -0.040754  0.000000  0.020377      2.000000
 -0.030566  0.000000  0.020377      2.000000
 -0.020377  0.000000  0.020377      2.000000
 -0.010189  0.000000  0.020377      2.000000
  0.000000  0.010189  0.020377      2.000000
  0.010189  0.010189  0.020377      2.000000
  0.020377  0.010189  0.020377      2.000000
  0.030566  0.010189  0.020377      2.000000
  0.040754  0.010189  0.020377      2.000000
  0.050943  0.010189  0.020377      2.000000
 -0.040754  0.010189  0.020377      2.000000
 -0.030566  0.010189  0.020377      2.000000
 -0.020377  0.010189  0.020377      2.000000
 -0.010189  0.010189  0.020377      2.000000
  0.000000  0.020377  0.020377      2.000000
  0.010189  0.020377  0.020377      2.000000
  0.020377  0.020377  0.020377      2.000000
  0.030566  0.020377  0.020377      2.000000
  0.040754  0.020377  0.020377      2.000000
  0.050943  0.020377  0.020377      2.000000
 -0.040754  0.020377  0.020377      2.000000
 -0.030566  0.020377  0.020377      2.000000
 -0.020377  0.020377  0.020377      2.000000
 -0.010189  0.020377  0.020377      2.000000
  0.000000  0.030566  0.020377      2.000000
  0.010189  0.030566  0.020377      2.000000
  0.020377  0.030566  0.020377      2.000000
  0.030566  0.030566  0.020377      2.000000
  0.040754  0.030566  0.020377      2.000000
  0.050943  0.030566  0.020377      2.000000
 -0.040754  0.030566  0.020377      2.000000
 -0.030566  0.030566  0.020377      2.000000
 -0.020377  0.030566  0.020377      2.000000
 -0.010189  0.030566  0.020377      2.000000
  0.000000  0.040754  0.020377      2.000000
  0.010189  0.040754  0.020377      2.000000
  0.020377  0.040754  0.020377      2.000000
  0.030566  0.040754  0.020377      2.000000
  0.040754  0.040754  0.020377      2.000000
  0.050943  0.040754  0.020377      2.000000
 -0.040754  0.040754  0.020377      2.000000
 -0.030566  0.040754  0.020377      2.000000
 -0.020377  0.040754  0.020377      2.000000
 -0.010189  0.040754  0.020377      2.000000
  0.000000  0.050943  0.020377      2.000000
  0.010189  0.050943  0.020377      2.000000
  0.020377  0.050943  0.020377      2.000000
  0.030566  0.050943  0.020377      2.000000
  0.040754  0.050943  0.020377      2.000000
  0.050943  0.050943  0.020377      2.000000
 -0.040754  0.050943  0.020377      2.000000
 -0.030566  0.050943  0.020377      2.000000
 -0.020377  0.050943  0.020377      2.000000
 -0.010189  0.050943  0.020377      2.000000
  0.000000 -0.040754  0.020377      2.000000
  0.010189 -0.040754  0.020377      2.000000
  0.020377 -0.040754  0.020377      2.000000
  0.030566 -0.040754  0.020377      2.000000
  0.040754 -0.040754  0.020377      2.000000
  0.050943 -0.040754  0.020377      2.000000
 -0.040754 -0.040754  0.020377      2.000000
 -0.030566 -0.040754  0.020377      2.000000
 -0.020377 -0.040754  0.020377      2.000000
 -0.010189 -0.040754  0.020377      2.000000
  0.000000 -0.030566  0.020377      2.000000
  0.010189 -0.030566  0.020377      2.000000
  0.020377 -0.030566  0.020377      2.000000
  0.030566 -0.030566  0.020377      2.000000
  0.040754 -0.030566  0.020377      2.000000
  0.050943 -0.030566  0.020377      2.000000
 -0.040754 -0.030566  0.020377      2.000000
 -0.030566 -0.030566  0.020377      2.000000
 -0.020377 -0.030566  0.020377      2.000000
 -0.010189 -0.030566  0.020377      2.000000
  0.000000 -0.020377  0.020377      2.000000
  0.010189 -0.020377  0.020377      2.000000
  0.020377 -0.020377  0.020377      2.000000
  0.030566 -0.020377  0.020377      2.000000
  0.040754 -0.020377  0.020377      2.000000
  0.050943 -0.020377  0.020377      2.000000
 -0.040754 -0.020377  0.020377      2.000000
 -0.030566 -0.020377  0.020377      2.000000
 -0.020377 -0.020377  0.020377      2.000000
 -0.010189 -0.020377  0.020377      2.000000
  0.000000 -0.010189  0.020377      2.000000
  0.010189 -0.010189  0.020377      2.000000
  0.020377 -0.010189  0.020377      2.000000
  0.030566 -0.010189  0.020377      2.000000
  0.040754 -0.010189  0.020377      2.000000
  0.050943 -0.010189  0.020377      2.000000
 -0.040754 -0.010189  0.020377      2.000000
 -0.030566 -0.010189  0.020377      2.000000
 -0.020377 -0.010189  0.020377      2.000000
 -0.010189 -0.010189  0.020377      2.000000
  0.000000  0.000000  0.030566      2.000000
  0.010189  0.000000  0.030566      2.000000
  0.020377  0.000000  0.030566      2.000000
  0.030566  0.000000  0.030566      2.000000
  0.040754  0.000000  0.030566      2.000000
  0.050943  0.000000  0.030566      2.000000
 -0.040754  0.000000  0.030566      2.000000
 -0.030566  0.000000  0.030566      2.000000
 -0.020377  0.000000  0.030566      2.000000
 -0.010189  0.000000  0.030566      2.000000
  0.000000  0.010189  0.030566      2.000000
  0.010189  0.010189  0.030566      2.000000
  0.020377  0.010189  0.030566      2.000000
  0.030566  0.010189  0.030566      2.000000
  0.040754  0.010189  0.030566      2.000000
  0.050943  0.010189  0.030566      2.000000
 -0.040754  0.010189  0.030566      2.000000
 -0.030566  0.010189  0.030566      2.000000
 -0.020377  0.010189  0.030566      2.000000
 -0.010189  0.010189  0.030566      2.000000
  0.000000  0.020377  0.030566      2.000000
  0.010189  0.020377  0.030566      2.000000
  0.020377  0.020377  0.030566      2.000000
  0.030566  0.020377  0.030566      2.000000
  0.040754  0.020377  0.030566      2.000000
  0.050943  0.020377  0.030566      2.000000
 -0.040754  0.020377  0.030566      2.000000
 -0.030566  0.020377  0.030566      2.000000
 -0.020377  0.020377  0.030566      2.000000
 -0.010189  0.020377  0.030566      2.000000
  0.000000  0.030566  0.030566      2.000000
  0.010189  0.030566  0.030566      2.000000
  0.020377  0.030566  0.030566      2.000000
  0.030566  0.030566  0.030566      2.000000
  0.040754  0.030566  0.030566      2.000000
  0.050943  0.030566  0.030566      2.000000
 -0.040754  0.030566  0.030566      2.000000
 -0.030566  0.030566  0.030566      2.000000
 -0.020377  0.030566  0.030566      2.000000
 -0.010189  0.030566  0.030566      2.000000
  0.000000  0.040754  0.030566      2.000000
  0.010189  0.040754  0.030566      2.000000
  0.020377  0.040754  0.030566      2.000000
  0.030566  0.040754  0.030566      2.000000
  0.040754  0.040754  0.030566      2.000000
  0.050943  0.040754  0.030566      2.000000
 -0.040754  0.040754  0.030566      2.000000
 -0.030566  0.040754  0.030566      2.000000
 -0.020377  0.040754  0.030566      2.000000
 -0.010189  0.040754  0.030566      2.000000
  0.000000  0.050943  0.030566      2.000000
  0.010189  0.050943  0.030566      2.000000
  0.020377  0.050943  0.030566      2.000000
  0.030566  0.050943  0.030566      2.000000
  0.040754  0.050943  0.030566      2.000000
  0.050943  0.050943  0.030566      2.000000
 -0.040754  0.050943  0.030566      2.000000
 -0.030566  0.050943  0.030566      2.000000
 -0.020377  0.050943  0.030566      2.000000
 -0.010189  0.050943  0.030566      2.000000
  0.000000 -0.040754  0.030566      2.000000
  0.010189 -0.040754  0.030566      2.000000
  0.020377 -0.040754  0.030566      2.000000
  0.030566 -0.040754  0.030566      2.000000
  0.040754 -0.040754  0.030566      2.000000
  0.050943 -0.040754  0.030566      2.000000
 -0.040754 -0.040754  0.030566      2.000000
 -0.030566 -0.040754  0.030566      2.000000
 -0.020377 -0.040754  0.030566      2.000000
 -0.010189 -0.040754  0.030566      2.000000
  0.000000 -0.030566  0.030566      2.000000
  0.010189 -0.030566  0.030566      2.000000
  0.020377 -0.030566  0.030566      2.000000
  0.030566 -0.030566  0.030566      2.000000
  0.040754 -0.030566  0.030566      2.000000
  0.050943 -0.030566  0.030566      2.000000
 -0.040754 -0.030566  0.030566      2.000000
 -0.030566 -0.030566  0.030566      2.000000
 -0.020377 -0.030566  0.030566      2.000000
 -0.010189 -0.030566  0.030566      2.000000
  0.000000 -0.020377  0.030566      2.000000
  0.010189 -0.020377  0.030566      2.000000
  0.020377 -0.020377  0.030566      2.000000
  0.030566 -0.020377  0.030566      2.000000
  0.040754 -0.020377  0.030566      2.000000
  0.050943 -0.020377  0.030566      2.000000
 -0.040754 -0.020377  0.030566      2.000000
 -0.030566 -0.020377  0.030566      2.000000
 -0.020377 -0.020377  0.030566      2.000000
 -0.010189 -0.020377  0.030566      2.000000
  0.000000 -0.010189  0.030566      2.000000
  0.010189 -0.010189  0.030566      2.000000
  0.020377 -0.010189  0.030566      2.000000
  0.030566 -0.010189  0.030566      2.000000
  0.040754 -0.010189  0.030566      2.000000
  0.050943 -0.010189  0.030566      2.000000
 -0.040754 -0.010189  0.030566      2.000000
 -0.030566 -0.010189  0.030566      2.000000
 -0.020377 -0.010189  0.030566      2.000000
 -0.010189 -0.010189  0.030566      2.000000
  0.000000  0.000000  0.040754      2.000000
  0.010189  0.000000  0.040754      2.000000
  0.020377  0.000000  0.040754      2.000000
  0.030566  0.000000  0.040754      2.000000
  0.040754  0.000000  0.040754      2.000000
  0.050943  0.000000  0.040754      2.000000
 -0.040754  0.000000  0.040754      2.000000
 -0.030566  0.000000  0.040754      2.000000
 -0.020377  0.000000  0.040754      2.000000
 -0.010189  0.000000  0.040754      2.000000
  0.000000  0.010189  0.040754      2.000000
  0.010189  0.010189  0.040754      2.000000
  0.020377  0.010189  0.040754      2.000000
  0.030566  0.010189  0.040754      2.000000
  0.040754  0.010189  0.040754      2.000000
  0.050943  0.010189  0.040754      2.000000
 -0.040754  0.010189  0.040754      2.000000
 -0.030566  0.010189  0.040754      2.000000
 -0.020377  0.010189  0.040754      2.000000
 -0.010189  0.010189  0.040754      2.000000
  0.000000  0.020377  0.040754      2.000000
  0.010189  0.020377  0.040754      2.000000
  0.020377  0.020377  0.040754      2.000000
  0.030566  0.020377  0.040754      2.000000
  0.040754  0.020377  0.040754      2.000000
  0.050943  0.020377  0.040754      2.000000
 -0.040754  0.020377  0.040754      2.000000
 -0.030566  0.020377  0.040754      2.000000
 -0.020377  0.020377  0.040754      2.000000
 -0.010189  0.020377  0.040754      2.000000
  0.000000  0.030566  0.040754      2.000000
  0.010189  0.030566  0.040754      2.000000
  0.020377  0.030566  0.040754      2.000000
  0.030566  0.030566  0.040754      2.000000
  0.040754  0.030566  0.040754      2.000000
  0.050943  0.030566  0.040754      2.000000
 -0.040754  0.030566  0.040754      2.000000
 -0.030566  0.030566  0.040754      2.000000
 -0.020377  0.030566  0.040754      2.000000
 -0.010189  0.030566  0.040754      2.000000
  0.000000  0.040754  0.040754      2.000000
  0.010189  0.040754  0.040754      2.000000
  0.020377  0.040754  0.040754      2.000000
  0.030566  0.040754  0.040754      2.000000
  0.040754  0.040754  0.040754      2.000000
  0.050943  0.040754  0.040754      2.000000
 -0.040754  0.040754  0.040754      2.000000
 -0.030566  0.040754  0.040754      2.000000
 -0.020377  0.040754  0.040754      2.000000
 -0.010189  0.040754  0.040754      2.000000
  0.000000  0.050943  0.040754      2.000000
  0.010189  0.050943  0.040754      2.000000
  0.020377  0.050943  0.040754      2.000000
  0.030566  0.050943  0.040754      2.000000
  0.040754  0.050943  0.040754      2.000000
  0.050943  0.050943  0.040754      2.000000
 -0.040754  0.050943  0.040754      2.000000
 -0.030566  0.050943  0.040754      2.000000
 -0.020377  0.050943  0.040754      2.000000
 -0.010189  0.050943  0.040754      2.000000
  0.000000 -0.040754  0.040754      2.000000
  0.010189 -0.040754  0.040754      2.000000
  0.020377 -0.040754  0.040754      2.000000
  0.030566 -0.040754  0.040754      2.000000
  0.040754 -0.040754  0.040754      2.000000
  0.050943 -0.040754  0.040754      2.000000
 -0.040754 -0.040754  0.040754      2.000000
 -0.030566 -0.040754  0.040754      2.000000
 -0.020377 -0.040754  0.040754      2.000000
 -0.010189 -0.040754  0.040754      2.000000
  0.000000 -0.030566  0.040754      2.000000
  0.010189 -0.030566  0.040754      2.000000
  0.020377 -0.030566  0.040754      2.000000
  0.030566 -0.030566  0.040754      2.000000
  0.040754 -0.030566  0.040754      2.000000
  0.050943 -0.030566  0.040754      2.000000
 -0.040754 -0.030566  0.040754      2.000000
 -0.030566 -0.030566  0.040754      2.000000
 -0.020377 -0.030566  0.040754      2.000000
 -0.010189 -0.030566  0.040754      2.000000
  0.000000 -0.020377  0.040754      2.000000
  0.010189 -0.020377  0.040754      2.000000
  0.020377 -0.020377  0.040754      2.000000
  0.030566 -0.020377  0.040754      2.000000
  0.040754 -0.020377  0.040754      2.000000
  0.050943 -0.020377  0.040754      2.000000
 -0.040754 -0.020377  0.040754      2.000000
 -0.030566 -0.020377  0.040754      2.000000
 -0.020377 -0.020377  0.040754      2.000000
 -0.010189 -0.020377  0.040754      2.000000
  0.000000 -0.010189  0.040754      2.000000
  0.010189 -0.010189  0.040754      2.000000
  0.020377 -0.010189  0.040754      2.000000
  0.030566 -0.010189  0.040754      2.000000
  0.040754 -0.010189  0.040754      2.000000
  0.050943 -0.010189  0.040754      2.000000
 -0.040754 -0.010189  0.040754      2.000000
 -0.030566 -0.010189  0.040754      2.000000
 -0.020377 -0.010189  0.040754      2.000000
 -0.010189 -0.010189  0.040754      2.000000
  0.000000  0.000000  0.050943      1.000000
  0.010189  0.000000  0.050943      2.000000
  0.020377  0.000000  0.050943      2.000000
  0.030566  0.000000  0.050943      2.000000
  0.040754  0.000000  0.050943      2.000000
  0.050943  0.000000  0.050943      1.000000
  0.000000  0.010189  0.050943      2.000000
  0.010189  0.010189  0.050943      2.000000
  0.020377  0.010189  0.050943      2.000000
  0.030566  0.010189  0.050943      2.000000
  0.040754  0.010189  0.050943      2.000000
  0.050943  0.010189  0.050943      2.000000
 -0.040754  0.010189  0.050943      2.000000
 -0.030566  0.010189  0.050943      2.000000
 -0.020377  0.010189  0.050943      2.000000
 -0.010189  0.010189  0.050943      2.000000
  0.000000  0.020377  0.050943      2.000000
  0.010189  0.020377  0.050943      2.000000
  0.020377  0.020377  0.050943      2.000000
  0.030566  0.020377  0.050943      2.000000
  0.040754  0.020377  0.050943      2.000000
  0.050943  0.020377  0.050943      2.000000
 -0.040754  0.020377  0.050943      2.000000
 -0.030566  0.020377  0.050943      2.000000
 -0.020377  0.020377  0.050943      2.000000
 -0.010189  0.020377  0.050943      2.000000
  0.000000  0.030566  0.050943      2.000000
  0.010189  0.030566  0.050943      2.000000
  0.020377  0.030566  0.050943      2.000000
  0.030566  0.030566  0.050943      2.000000
  0.040754  0.030566  0.050943      2.000000
  0.050943  0.030566  0.050943      2.000000
 -0.040754  0.030566  0.050943      2.000000
 -0.030566  0.030566  0.050943      2.000000
 -0.020377  0.030566  0.050943      2.000000
 -0.010189  0.030566  0.050943      2.000000
  0.000000  0.040754  0.050943      2.000000
  0.010189  0.040754  0.050943      2.000000
  0.020377  0.040754  0.050943      2.000000
  0.030566  0.040754  0.050943      2.000000
  0.040754  0.040754  0.050943      2.000000
  0.050943  0.040754  0.050943      2.000000
 -0.040754  0.040754  0.050943      2.000000
 -0.030566  0.040754  0.050943      2.000000
 -0.020377  0.040754  0.050943      2.000000
 -0.010189  0.040754  0.050943      2.000000
  0.000000  0.050943  0.050943      1.000000
  0.010189  0.050943  0.050943      2.000000
  0.020377  0.050943  0.050943      2.000000
  0.030566  0.050943  0.050943      2.000000
  0.040754  0.050943  0.050943      2.000000
  0.050943  0.050943  0.050943      1.000000
 


--------------------------------------------------------------------------------------------------------




 Dimension of arrays:
   k-points           NKPTS =    504   k-points in BZ     NKDIM =    504   number of bands    NBANDS=    172
   number of dos      NEDOS =    301   number of ions     NIONS =     93
   non local maximal  LDIM  =      4   non local SUM 2l+1 LMDIM =      8
   total plane-waves  NPLWV = 110592
   max r-space proj   IRMAX =   1339   max aug-charges    IRDMAX=   1717
   dimension x,y,z NGX =    48 NGY =   48 NGZ =   48
   dimension x,y,z NGXF=    96 NGYF=   96 NGZF=   96
   support grid    NGXF=    96 NGYF=   96 NGZF=   96
   ions per type =              31  62
   NGX,Y,Z   is equivalent  to a cutoff of   8.13,  8.13,  8.13 a.u.
   NGXF,Y,Z  is equivalent  to a cutoff of  16.26, 16.26, 16.26 a.u.

 SYSTEM =  ice                                     
 POSCAR =  # 4                                     

 Startparameter for this run:
   NWRITE =      0    write-flag & timer
   PREC   = normal    normal or accurate (medium, high low for compatibility)
   ISTART =      0    job   : 0-new  1-cont  2-samecut
   ICHARG =      1    charge: 1-file 2-atom 10-const
   ISPIN  =      1    spin polarized calculation?
   LNONCOLLINEAR =      F non collinear calculations
   LSORBIT =      F    spin-orbit coupling
   INIWAV =      1    electr: 0-lowe 1-rand  2-diag
   LASPH  =      F    aspherical Exc in radial PAW
   METAGGA=      F    non-selfconsistent MetaGGA calc.

 Electronic Relaxation 1
   ENCUT  =  400.0 eV  29.40 Ry    5.42 a.u.  16.01 16.01 16.01*2*pi/ulx,y,z
   ENINI  =  400.0     initial cutoff
   ENAUG  =  605.4 eV  augmentation charge cutoff
   NELM   =    500;   NELMIN=  4; NELMDL=  0     # of ELM steps 
   EDIFF  = 0.1E-05   stopping-criterion for ELM
   LREAL  =      T    real-space projection
   NLSPLINE    = F    spline interpolate recip. space projectors
   LCOMPAT=      F    compatible to vasp.4.4
   GGA_COMPAT  = T    GGA compatible to vasp.4.4-vasp.4.6
   LMAXPAW     = -100 max onsite density
   LMAXMIX     =    2 max onsite mixed and CHGCAR
   VOSKOWN=      0    Vosko Wilk Nusair interpolation
   ROPT   =   -0.00050  -0.00050
 Ionic relaxation
   EDIFFG = 0.1E-04   stopping-criterion for IOM
   NSW    =      0    number of steps for IOM
   NBLOCK =      1;   KBLOCK =      1    inner block; outer block 
   IBRION =     -1    ionic relax: 0-MD 1-quasi-New 2-CG
   NFREE  =      0    steps in history (QN), initial steepest desc. (CG)
   ISIF   =      2    stress and relaxation
   IWAVPR =     10    prediction:  0-non 1-charg 2-wave 3-comb
   ISYM   =      2    0-nonsym 1-usesym 2-fastsym
   LCORR  =      T    Harris-Foulkes like correction to forces

   POTIM  = 0.5000    time-step for ionic-motion
   TEIN   =    0.0    initial temperature
   TEBEG  =    0.0;   TEEND  =   0.0 temperature during run
   SMASS  =  -3.00    Nose mass-parameter (am)
   estimated Nose-frequenzy (Omega)   =  0.10E-29 period in steps =****** mass=  -0.220E-26a.u.
   SCALEE = 1.0000    scale energy and forces
   NPACO  =    256;   APACO  = 16.0  distance and # of slots for P.C.
   PSTRESS=    0.0 pullay stress

  Mass of Ions in am
   POMASS =  16.00  1.00
  Ionic Valenz
   ZVAL   =   6.00  1.00
  Atomic Wigner-Seitz radii
   RWIGS  =  -1.00 -1.00
  virtual crystal weights 
   VCA    =   1.00  1.00
   NELECT =     248.0000    total number of electrons
   NUPDOWN=      -1.0000    fix difference up-down

 DOS related values:
   EMIN   =  10.00;   EMAX   =-10.00  energy-range for DOS
   EFERMI =   0.00
   ISMEAR =    -1;   SIGMA  =   0.05  broadening in eV -4-tet -1-fermi 0-gaus

 Electronic relaxation 2 (details)
   IALGO  =     48    algorithm
   LDIAG  =      T    sub-space diagonalisation (order eigenvalues)
   LSUBROT=      F    optimize rotation matrix (better conditioning)
   TURBO    =      0    0=normal 1=particle mesh
   IRESTART =      0    0=no restart 2=restart with 2 vectors
   NREBOOT  =      0    no. of reboots
   NMIN     =      0    reboot dimension
   EREF     =   0.00    reference energy to select bands
   IMIX   =      4    mixing-type and parameters
     AMIX     =   0.40;   BMIX     =  1.00
     AMIX_MAG =   1.60;   BMIX_MAG =  1.00
     AMIN     =   0.10
     WC   =   100.;   INIMIX=   1;  MIXPRE=   1;  MAXMIX=  40

 Intra band minimization:
   WEIMIN = 0.0000     energy-eigenvalue tresh-hold
   EBREAK =  0.15E-08  absolut break condition
   DEPER  =   0.30     relativ break condition  

   TIME   =   0.40     timestep for ELM

  volume/ion in A,a.u.               =      10.17        68.61
  Fermi-wavevector in a.u.,A,eV,Ry     =   1.047947  1.980334 14.941835  1.098194
  Thomas-Fermi vector in A             =   2.182849
 
 Write flags
   LWAVE        =      F    write WAVECAR
   LDOWNSAMPLE  =      F    k-point downsampling of WAVECAR
   LCHARG       =      F    write CHGCAR
   LVTOT        =      F    write LOCPOT, total local potential
   LVHAR        =      T    write LOCPOT, Hartree potential only
   LELF         =      F    write electronic localiz. function (ELF)
   LORBIT       =      0    0 simple, 1 ext, 2 COOP (PROOUT), +10 PAW based schemes


 Dipole corrections
   LMONO  =      F    monopole corrections only (constant potential shift)
   LDIPOL =      F    correct potential (dipole corrections)
   IDIPOL =      0    1-x, 2-y, 3-z, 4-all directions 
   EPSILON=  1.0000000 bulk dielectric constant

 Exchange correlation treatment:
   GGA     =    --    GGA type
   LEXCH   =     8    internal setting for exchange type
   VOSKOWN=      0    Vosko Wilk Nusair interpolation
   LHFCALC =     F    Hartree Fock is set to
   LHFONE  =     F    Hartree Fock one center treatment
   AEXX    =    0.0000 exact exchange contribution

 Linear response parameters
   LEPSILON=     F    determine dielectric tensor
   LRPA    =     F    only Hartree local field effects (RPA)
   LNABLA  =     F    use nabla operator in PAW spheres
   LVEL    =     F    velocity operator in full k-point grid
   LINTERFAST=   F  fast interpolation
   KINTER  =     0    interpolate to denser k-point grid
   CSHIFT  =0.1000    complex shift for real part using Kramers Kronig
   OMEGAMAX=  -1.0    maximum frequency
   DEG_THRESHOLD= 0.2000000E-02 threshold for treating states as degnerate
   RTIME   =   -0.100 relaxation time in fs
  (WPLASMAI=    0.000 imaginary part of plasma frequency in eV, 0.658/RTIME)
   DFIELD  = 0.0000000 0.0000000 0.0000000 field for delta impulse in time
 
 Orbital magnetization related:
   ORBITALMAG=     F  switch on orbital magnetization
   LCHIMAG   =     F  perturbation theory with respect to B field
   DQ        =  0.001000  dq finite difference perturbation B field
   LLRAUG    =     F  two centre corrections for induced B field



--------------------------------------------------------------------------------------------------------


 Static calculation
 charge density and potential will be updated during run
 non-spin polarized calculation
 RMM-DIIS sequential band-by-band
 perform sub-space diagonalisation
    before iterative eigenvector-optimisation
 modified Broyden-mixing scheme, WC =      100.0
 initial mixing is a Kerker type mixing with AMIX =  0.4000 and BMIX =      1.0000
 Hartree-type preconditioning will be used
 using additional bands           48
 real space projection scheme for non local part
 use partial core corrections
 calculate Harris-corrections to forces 
   (improved forces if not selfconsistent)
 use gradient corrections 
 use of overlap-Matrix (Vanderbilt PP)
 Fermi-smearing in eV        SIGMA  =   0.05


--------------------------------------------------------------------------------------------------------


  energy-cutoff  :      400.00
  volume of cell :      945.49
      direct lattice vectors                 reciprocal lattice vectors
     9.814900000  0.000000000  0.000000000     0.101885908  0.000000000  0.000000000
     0.000000000  9.814900000  0.000000000     0.000000000  0.101885908  0.000000000
     0.000000000  0.000000000  9.814900000     0.000000000  0.000000000  0.101885908

  length of vectors
     9.814900000  9.814900000  9.814900000     0.101885908  0.101885908  0.101885908


 
 k-points in units of 2pi/SCALE and weight: automatic mesh                          
   0.00000000  0.00000000  0.00000000       0.001
   0.01018859  0.00000000  0.00000000       0.002
   0.02037718  0.00000000  0.00000000       0.002
   0.03056577  0.00000000  0.00000000       0.002
   0.04075436  0.00000000  0.00000000       0.002
   0.05094295  0.00000000  0.00000000       0.001
   0.00000000  0.01018859  0.00000000       0.002
   0.01018859  0.01018859  0.00000000       0.002
   0.02037718  0.01018859  0.00000000       0.002
   0.03056577  0.01018859  0.00000000       0.002
   0.04075436  0.01018859  0.00000000       0.002
   0.05094295  0.01018859  0.00000000       0.002
  -0.04075436  0.01018859  0.00000000       0.002
  -0.03056577  0.01018859  0.00000000       0.002
  -0.02037718  0.01018859  0.00000000       0.002
  -0.01018859  0.01018859  0.00000000       0.002
   0.00000000  0.02037718  0.00000000       0.002
   0.01018859  0.02037718  0.00000000       0.002
   0.02037718  0.02037718  0.00000000       0.002
   0.03056577  0.02037718  0.00000000       0.002
   0.04075436  0.02037718  0.00000000       0.002
   0.05094295  0.02037718  0.00000000       0.002
  -0.04075436  0.02037718  0.00000000       0.002
  -0.03056577  0.02037718  0.00000000       0.002
  -0.02037718  0.02037718  0.00000000       0.002
  -0.01018859  0.02037718  0.00000000       0.002
   0.00000000  0.03056577  0.00000000       0.002
   0.01018859  0.03056577  0.00000000       0.002
   0.02037718  0.03056577  0.00000000       0.002
   0.03056577  0.03056577  0.00000000       0.002
   0.04075436  0.03056577  0.00000000       0.002
   0.05094295  0.03056577  0.00000000       0.002
  -0.04075436  0.03056577  0.00000000       0.002
  -0.03056577  0.03056577  0.00000000       0.002
  -0.02037718  0.03056577  0.00000000       0.002
  -0.01018859  0.03056577  0.00000000       0.002
   0.00000000  0.04075436  0.00000000       0.002
   0.01018859  0.04075436  0.00000000       0.002
   0.02037718  0.04075436  0.00000000       0.002
   0.03056577  0.04075436  0.00000000       0.002
   0.04075436  0.04075436  0.00000000       0.002
   0.05094295  0.04075436  0.00000000       0.002
  -0.04075436  0.04075436  0.00000000       0.002
  -0.03056577  0.04075436  0.00000000       0.002
  -0.02037718  0.04075436  0.00000000       0.002
  -0.01018859  0.04075436  0.00000000       0.002
   0.00000000  0.05094295  0.00000000       0.001
   0.01018859  0.05094295  0.00000000       0.002
   0.02037718  0.05094295  0.00000000       0.002
   0.03056577  0.05094295  0.00000000       0.002
   0.04075436  0.05094295  0.00000000       0.002
   0.05094295  0.05094295  0.00000000       0.001
   0.00000000  0.00000000  0.01018859       0.002
   0.01018859  0.00000000  0.01018859       0.002
   0.02037718  0.00000000  0.01018859       0.002
   0.03056577  0.00000000  0.01018859       0.002
   0.04075436  0.00000000  0.01018859       0.002
   0.05094295  0.00000000  0.01018859       0.002
  -0.04075436  0.00000000  0.01018859       0.002
  -0.03056577  0.00000000  0.01018859       0.002
  -0.02037718  0.00000000  0.01018859       0.002
  -0.01018859  0.00000000  0.01018859       0.002
   0.00000000  0.01018859  0.01018859       0.002
   0.01018859  0.01018859  0.01018859       0.002
   0.02037718  0.01018859  0.01018859       0.002
   0.03056577  0.01018859  0.01018859       0.002
   0.04075436  0.01018859  0.01018859       0.002
   0.05094295  0.01018859  0.01018859       0.002
  -0.04075436  0.01018859  0.01018859       0.002
  -0.03056577  0.01018859  0.01018859       0.002
  -0.02037718  0.01018859  0.01018859       0.002
  -0.01018859  0.01018859  0.01018859       0.002
   0.00000000  0.02037718  0.01018859       0.002
   0.01018859  0.02037718  0.01018859       0.002
   0.02037718  0.02037718  0.01018859       0.002
   0.03056577  0.02037718  0.01018859       0.002
   0.04075436  0.02037718  0.01018859       0.002
   0.05094295  0.02037718  0.01018859       0.002
  -0.04075436  0.02037718  0.01018859       0.002
  -0.03056577  0.02037718  0.01018859       0.002
  -0.02037718  0.02037718  0.01018859       0.002
  -0.01018859  0.02037718  0.01018859       0.002
   0.00000000  0.03056577  0.01018859       0.002
   0.01018859  0.03056577  0.01018859       0.002
   0.02037718  0.03056577  0.01018859       0.002
   0.03056577  0.03056577  0.01018859       0.002
   0.04075436  0.03056577  0.01018859       0.002
   0.05094295  0.03056577  0.01018859       0.002
  -0.04075436  0.03056577  0.01018859       0.002
  -0.03056577  0.03056577  0.01018859       0.002
  -0.02037718  0.03056577  0.01018859       0.002
  -0.01018859  0.03056577  0.01018859       0.002
   0.00000000  0.04075436  0.01018859       0.002
   0.01018859  0.04075436  0.01018859       0.002
   0.02037718  0.04075436  0.01018859       0.002
   0.03056577  0.04075436  0.01018859       0.002
   0.04075436  0.04075436  0.01018859       0.002
   0.05094295  0.04075436  0.01018859       0.002
  -0.04075436  0.04075436  0.01018859       0.002
  -0.03056577  0.04075436  0.01018859       0.002
  -0.02037718  0.04075436  0.01018859       0.002
  -0.01018859  0.04075436  0.01018859       0.002
   0.00000000  0.05094295  0.01018859       0.002
   0.01018859  0.05094295  0.01018859       0.002
   0.02037718  0.05094295  0.01018859       0.002
   0.03056577  0.05094295  0.01018859       0.002
   0.04075436  0.05094295  0.01018859       0.002
   0.05094295  0.05094295  0.01018859       0.002
  -0.04075436  0.05094295  0.01018859       0.002
  -0.03056577  0.05094295  0.01018859       0.002
  -0.02037718  0.05094295  0.01018859       0.002
  -0.01018859  0.05094295  0.01018859       0.002
   0.00000000 -0.04075436  0.01018859       0.002
   0.01018859 -0.04075436  0.01018859       0.002
   0.02037718 -0.04075436  0.01018859       0.002
   0.03056577 -0.04075436  0.01018859       0.002
   0.04075436 -0.04075436  0.01018859       0.002
   0.05094295 -0.04075436  0.01018859       0.002
  -0.04075436 -0.04075436  0.01018859       0.002
  -0.03056577 -0.04075436  0.01018859       0.002
  -0.02037718 -0.04075436  0.01018859       0.002
  -0.01018859 -0.04075436  0.01018859       0.002
   0.00000000 -0.03056577  0.01018859       0.002
   0.01018859 -0.03056577  0.01018859       0.002
   0.02037718 -0.03056577  0.01018859       0.002
   0.03056577 -0.03056577  0.01018859       0.002
   0.04075436 -0.03056577  0.01018859       0.002
   0.05094295 -0.03056577  0.01018859       0.002
  -0.04075436 -0.03056577  0.01018859       0.002
  -0.03056577 -0.03056577  0.01018859       0.002
  -0.02037718 -0.03056577  0.01018859       0.002
  -0.01018859 -0.03056577  0.01018859       0.002
   0.00000000 -0.02037718  0.01018859       0.002
   0.01018859 -0.02037718  0.01018859       0.002
   0.02037718 -0.02037718  0.01018859       0.002
   0.03056577 -0.02037718  0.01018859       0.002
   0.04075436 -0.02037718  0.01018859       0.002
   0.05094295 -0.02037718  0.01018859       0.002
  -0.04075436 -0.02037718  0.01018859       0.002
  -0.03056577 -0.02037718  0.01018859       0.002
  -0.02037718 -0.02037718  0.01018859       0.002
  -0.01018859 -0.02037718  0.01018859       0.002
   0.00000000 -0.01018859  0.01018859       0.002
   0.01018859 -0.01018859  0.01018859       0.002
   0.02037718 -0.01018859  0.01018859       0.002
   0.03056577 -0.01018859  0.01018859       0.002
   0.04075436 -0.01018859  0.01018859       0.002
   0.05094295 -0.01018859  0.01018859       0.002
  -0.04075436 -0.01018859  0.01018859       0.002
  -0.03056577 -0.01018859  0.01018859       0.002
  -0.02037718 -0.01018859  0.01018859       0.002
  -0.01018859 -0.01018859  0.01018859       0.002
   0.00000000  0.00000000  0.02037718       0.002
   0.01018859  0.00000000  0.02037718       0.002
   0.02037718  0.00000000  0.02037718       0.002
   0.03056577  0.00000000  0.02037718       0.002
   0.04075436  0.00000000  0.02037718       0.002
   0.05094295  0.00000000  0.02037718       0.002
  -0.04075436  0.00000000  0.02037718       0.002
  -0.03056577  0.00000000  0.02037718       0.002
  -0.02037718  0.00000000  0.02037718       0.002
  -0.01018859  0.00000000  0.02037718       0.002
   0.00000000  0.01018859  0.02037718       0.002
   0.01018859  0.01018859  0.02037718       0.002
   0.02037718  0.01018859  0.02037718       0.002
   0.03056577  0.01018859  0.02037718       0.002
   0.04075436  0.01018859  0.02037718       0.002
   0.05094295  0.01018859  0.02037718       0.002
  -0.04075436  0.01018859  0.02037718       0.002
  -0.03056577  0.01018859  0.02037718       0.002
  -0.02037718  0.01018859  0.02037718       0.002
  -0.01018859  0.01018859  0.02037718       0.002
   0.00000000  0.02037718  0.02037718       0.002
   0.01018859  0.02037718  0.02037718       0.002
   0.02037718  0.02037718  0.02037718       0.002
   0.03056577  0.02037718  0.02037718       0.002
   0.04075436  0.02037718  0.02037718       0.002
   0.05094295  0.02037718  0.02037718       0.002
  -0.04075436  0.02037718  0.02037718       0.002
  -0.03056577  0.02037718  0.02037718       0.002
  -0.02037718  0.02037718  0.02037718       0.002
  -0.01018859  0.02037718  0.02037718       0.002
   0.00000000  0.03056577  0.02037718       0.002
   0.01018859  0.03056577  0.02037718       0.002
   0.02037718  0.03056577  0.02037718       0.002
   0.03056577  0.03056577  0.02037718       0.002
   0.04075436  0.03056577  0.02037718       0.002
   0.05094295  0.03056577  0.02037718       0.002
  -0.04075436  0.03056577  0.02037718       0.002
  -0.03056577  0.03056577  0.02037718       0.002
  -0.02037718  0.03056577  0.02037718       0.002
  -0.01018859  0.03056577  0.02037718       0.002
   0.00000000  0.04075436  0.02037718       0.002
   0.01018859  0.04075436  0.02037718       0.002
   0.02037718  0.04075436  0.02037718       0.002
   0.03056577  0.04075436  0.02037718       0.002
   0.04075436  0.04075436  0.02037718       0.002
   0.05094295  0.04075436  0.02037718       0.002
  -0.04075436  0.04075436  0.02037718       0.002
  -0.03056577  0.04075436  0.02037718       0.002
  -0.02037718  0.04075436  0.02037718       0.002
  -0.01018859  0.04075436  0.02037718       0.002
   0.00000000  0.05094295  0.02037718       0.002
   0.01018859  0.05094295  0.02037718       0.002
   0.02037718  0.05094295  0.02037718       0.002
   0.03056577  0.05094295  0.02037718       0.002
   0.04075436  0.05094295  0.02037718       0.002
   0.05094295  0.05094295  0.02037718       0.002
  -0.04075436  0.05094295  0.02037718       0.002
  -0.03056577  0.05094295  0.02037718       0.002
  -0.02037718  0.05094295  0.02037718       0.002
  -0.01018859  0.05094295  0.02037718       0.002
   0.00000000 -0.04075436  0.02037718       0.002
   0.01018859 -0.04075436  0.02037718       0.002
   0.02037718 -0.04075436  0.02037718       0.002
   0.03056577 -0.04075436  0.02037718       0.002
   0.04075436 -0.04075436  0.02037718       0.002
   0.05094295 -0.04075436  0.02037718       0.002
  -0.04075436 -0.04075436  0.02037718       0.002
  -0.03056577 -0.04075436  0.02037718       0.002
  -0.02037718 -0.04075436  0.02037718       0.002
  -0.01018859 -0.04075436  0.02037718       0.002
   0.00000000 -0.03056577  0.02037718       0.002
   0.01018859 -0.03056577  0.02037718       0.002
   0.02037718 -0.03056577  0.02037718       0.002
   0.03056577 -0.03056577  0.02037718       0.002
   0.04075436 -0.03056577  0.02037718       0.002
   0.05094295 -0.03056577  0.02037718       0.002
  -0.04075436 -0.03056577  0.02037718       0.002
  -0.03056577 -0.03056577  0.02037718       0.002
  -0.02037718 -0.03056577  0.02037718       0.002
  -0.01018859 -0.03056577  0.02037718       0.002
   0.00000000 -0.02037718  0.02037718       0.002
   0.01018859 -0.02037718  0.02037718       0.002
   0.02037718 -0.02037718  0.02037718       0.002
   0.03056577 -0.02037718  0.02037718       0.002
   0.04075436 -0.02037718  0.02037718       0.002
   0.05094295 -0.02037718  0.02037718       0.002
  -0.04075436 -0.02037718  0.02037718       0.002
  -0.03056577 -0.02037718  0.02037718       0.002
  -0.02037718 -0.02037718  0.02037718       0.002
  -0.01018859 -0.02037718  0.02037718       0.002
   0.00000000 -0.01018859  0.02037718       0.002
   0.01018859 -0.01018859  0.02037718       0.002
   0.02037718 -0.01018859  0.02037718       0.002
   0.03056577 -0.01018859  0.02037718       0.002
   0.04075436 -0.01018859  0.02037718       0.002
   0.05094295 -0.01018859  0.02037718       0.002
  -0.04075436 -0.01018859  0.02037718       0.002
  -0.03056577 -0.01018859  0.02037718       0.002
  -0.02037718 -0.01018859  0.02037718       0.002
  -0.01018859 -0.01018859  0.02037718       0.002
   0.00000000  0.00000000  0.03056577       0.002
   0.01018859  0.00000000  0.03056577       0.002
   0.02037718  0.00000000  0.03056577       0.002
   0.03056577  0.00000000  0.03056577       0.002
   0.04075436  0.00000000  0.03056577       0.002
   0.05094295  0.00000000  0.03056577       0.002
  -0.04075436  0.00000000  0.03056577       0.002
  -0.03056577  0.00000000  0.03056577       0.002
  -0.02037718  0.00000000  0.03056577       0.002
  -0.01018859  0.00000000  0.03056577       0.002
   0.00000000  0.01018859  0.03056577       0.002
   0.01018859  0.01018859  0.03056577       0.002
   0.02037718  0.01018859  0.03056577       0.002
   0.03056577  0.01018859  0.03056577       0.002
   0.04075436  0.01018859  0.03056577       0.002
   0.05094295  0.01018859  0.03056577       0.002
  -0.04075436  0.01018859  0.03056577       0.002
  -0.03056577  0.01018859  0.03056577       0.002
  -0.02037718  0.01018859  0.03056577       0.002
  -0.01018859  0.01018859  0.03056577       0.002
   0.00000000  0.02037718  0.03056577       0.002
   0.01018859  0.02037718  0.03056577       0.002
   0.02037718  0.02037718  0.03056577       0.002
   0.03056577  0.02037718  0.03056577       0.002
   0.04075436  0.02037718  0.03056577       0.002
   0.05094295  0.02037718  0.03056577       0.002
  -0.04075436  0.02037718  0.03056577       0.002
  -0.03056577  0.02037718  0.03056577       0.002
  -0.02037718  0.02037718  0.03056577       0.002
  -0.01018859  0.02037718  0.03056577       0.002
   0.00000000  0.03056577  0.03056577       0.002
   0.01018859  0.03056577  0.03056577       0.002
   0.02037718  0.03056577  0.03056577       0.002
   0.03056577  0.03056577  0.03056577       0.002
   0.04075436  0.03056577  0.03056577       0.002
   0.05094295  0.03056577  0.03056577       0.002
  -0.04075436  0.03056577  0.03056577       0.002
  -0.03056577  0.03056577  0.03056577       0.002
  -0.02037718  0.03056577  0.03056577       0.002
  -0.01018859  0.03056577  0.03056577       0.002
   0.00000000  0.04075436  0.03056577       0.002
   0.01018859  0.04075436  0.03056577       0.002
   0.02037718  0.04075436  0.03056577       0.002
   0.03056577  0.04075436  0.03056577       0.002
   0.04075436  0.04075436  0.03056577       0.002
   0.05094295  0.04075436  0.03056577       0.002
  -0.04075436  0.04075436  0.03056577       0.002
  -0.03056577  0.04075436  0.03056577       0.002
  -0.02037718  0.04075436  0.03056577       0.002
  -0.01018859  0.04075436  0.03056577       0.002
   0.00000000  0.05094295  0.03056577       0.002
   0.01018859  0.05094295  0.03056577       0.002
   0.02037718  0.05094295  0.03056577       0.002
   0.03056577  0.05094295  0.03056577       0.002
   0.04075436  0.05094295  0.03056577       0.002
[...]
   -.927E+02 0.161E+02 -.212E+02   0.131E+03 -.162E+02 0.204E+02   -.379E+02 -.190E+01 0.643E+01   0.383E-03 -.203E-03 0.675E-03
   -.409E+02 0.151E+02 0.237E+02   0.472E+02 -.455E+02 -.245E+02   -.574E+01 0.332E+02 -.222E+00   0.300E-03 0.128E-02 0.621E-03
   0.138E+03 -.928E+02 -.434E+01   -.180E+03 0.909E+02 -.449E+01   0.398E+02 -.115E+01 0.810E+01   0.293E-03 -.195E-02 0.608E-03
   0.254E+01 -.204E+01 -.609E+02   0.169E+02 0.746E+01 0.918E+02   -.206E+02 -.628E+01 -.339E+02   0.500E-03 -.353E-03 0.460E-03
   -.777E+01 -.541E+02 -.352E+02   0.156E+02 0.870E+02 0.362E+02   -.813E+01 -.315E+02 -.179E+01   -.102E-05 0.864E-03 -.144E-02
   -.786E+01 -.200E+02 0.200E+02   0.378E+02 0.141E+02 -.175E+02   -.346E+02 0.634E+01 -.252E+01   -.905E-04 0.272E-03 0.173E-05
   -.753E+00 -.236E+01 0.767E+00   -.756E+00 0.217E+02 -.366E+02   0.199E+01 -.207E+02 0.384E+02   -.285E-04 0.134E-02 -.174E-02
   0.891E+02 0.705E+02 0.806E+00   -.880E+02 -.792E+02 -.305E+02   -.390E+01 0.436E+01 0.286E+02   -.961E-03 -.692E-03 0.103E-02
   0.164E+02 0.593E+02 0.308E+01   -.101E+02 -.916E+02 -.135E+02   -.557E+01 0.295E+02 0.840E+01   -.214E-03 0.170E-02 0.273E-03
   -.323E+02 0.212E+02 0.790E+02   0.454E+02 -.282E+02 -.113E+03   -.124E+02 0.758E+01 0.348E+02   0.128E-02 -.889E-03 -.160E-02
   -.695E+02 0.372E+02 -.773E+02   0.608E+02 -.783E+02 0.106E+03   0.770E+01 0.387E+02 -.305E+02   -.192E-03 -.342E-02 0.193E-02
   0.214E+02 0.930E+01 -.162E+02   -.439E+02 -.175E+02 0.112E+02   0.245E+02 0.836E+01 0.476E+01   0.712E-03 0.480E-04 -.318E-03
   0.804E+01 0.418E+02 0.393E+02   -.373E+02 -.692E+02 -.485E+02   0.237E+02 0.286E+02 0.744E+01   -.117E-02 0.101E-02 0.113E-02
   -.263E+02 0.522E+02 -.990E+01   0.438E+02 -.147E+02 0.621E+01   -.182E+02 -.378E+02 0.392E+01   -.317E-04 0.986E-03 -.328E-03
   0.238E+02 -.663E+02 0.105E+02   -.291E+02 0.747E+02 -.113E+02   0.428E+01 -.762E+01 0.756E+00   0.206E-03 -.235E-03 0.115E-03
   -.434E+02 -.159E+02 0.181E+02   0.461E+02 0.156E+02 -.191E+02   -.432E+01 -.897E+00 0.209E+01   0.512E-04 -.115E-03 0.996E-04
   0.447E+02 0.139E+02 0.561E+02   -.495E+02 -.155E+02 -.629E+02   0.478E+01 0.965E+00 0.660E+01   0.773E-04 0.174E-03 0.268E-04
   0.835E+01 0.447E+02 -.325E+02   -.931E+01 -.486E+02 0.350E+02   0.721E+00 0.524E+01 -.382E+01   -.842E-04 0.729E-04 0.302E-04
   0.141E+02 0.577E+02 0.388E+00   -.164E+02 -.637E+02 -.124E+01   0.268E+01 0.641E+01 0.380E+00   -.623E-04 0.867E-04 -.172E-04
   -.559E+02 0.298E+01 -.319E+02   0.657E+02 -.244E+01 0.369E+02   -.761E+01 -.120E+01 -.433E+01   -.374E-03 -.419E-04 -.976E-04
   0.211E+02 -.754E+02 -.114E+02   -.258E+02 0.883E+02 0.142E+02   0.333E+01 -.939E+01 -.239E+01   0.370E-04 0.138E-03 0.273E-04
   0.678E+01 0.464E+02 -.579E+02   -.969E+01 -.528E+02 0.688E+02   0.211E+01 0.439E+01 -.831E+01   0.133E-04 0.197E-03 -.106E-03
   0.457E+02 0.943E+01 0.440E+02   -.489E+02 -.914E+01 -.494E+02   0.439E+01 0.189E+00 0.558E+01   0.110E-03 0.203E-03 -.296E-03
   0.198E+02 0.546E+02 -.273E+02   -.216E+02 -.630E+02 0.329E+02   0.240E+01 0.695E+01 -.435E+01   0.152E-03 0.701E-04 -.986E-04
   0.306E+02 -.547E+02 0.493E+02   -.353E+02 0.619E+02 -.544E+02   0.380E+01 -.637E+01 0.494E+01   0.125E-03 -.196E-03 -.898E-04
   0.312E+02 0.140E+02 -.310E+02   -.336E+02 -.163E+02 0.316E+02   0.319E+01 0.326E+01 -.250E+01   0.139E-03 0.130E-03 -.159E-03
   0.467E+02 0.155E+02 -.486E+02   -.516E+02 -.168E+02 0.544E+02   0.487E+01 0.177E+01 -.602E+01   -.399E-04 0.558E-04 0.561E-04
   -.338E+02 0.627E+02 -.408E+01   0.434E+02 -.754E+02 0.236E+01   -.606E+01 0.888E+01 0.851E+00   0.103E-03 0.238E-04 -.148E-03
   0.603E+02 -.377E+02 0.246E+02   -.718E+02 0.448E+02 -.300E+02   0.842E+01 -.465E+01 0.402E+01   0.281E-06 -.127E-03 0.197E-03
   -.176E+02 -.454E+02 -.583E+02   0.182E+02 0.461E+02 0.603E+02   -.191E+01 -.218E+01 -.500E+01   -.840E-04 -.286E-03 0.742E-04
   0.224E+02 -.379E+02 0.972E+01   -.229E+02 0.394E+02 -.102E+02   0.116E+01 -.453E+01 0.570E+00   -.406E-04 -.219E-03 0.146E-03
   0.299E+02 0.254E+02 -.491E+02   -.328E+02 -.276E+02 0.536E+02   0.323E+01 0.322E+01 -.544E+01   -.131E-03 0.160E-03 0.665E-04
   0.150E+02 0.163E+00 0.546E+02   -.181E+02 -.361E+00 -.634E+02   0.285E+01 -.589E+00 0.759E+01   0.109E-03 0.336E-04 0.557E-04
   -.163E+02 -.572E+02 -.187E+02   0.186E+02 0.638E+02 0.192E+02   -.148E+01 -.683E+01 -.697E-01   0.315E-04 -.422E-04 -.474E-04
   0.754E+02 0.106E+02 0.116E+02   -.883E+02 -.135E+02 -.139E+02   0.976E+01 0.199E+01 0.143E+01   0.145E-04 0.584E-04 -.205E-03
   -.164E+02 -.542E+02 0.488E+02   0.191E+02 0.602E+02 -.558E+02   -.215E+01 -.526E+01 0.637E+01   -.374E-04 -.132E-03 -.141E-03
   -.198E+02 0.568E+02 0.148E+02   0.230E+02 -.669E+02 -.166E+02   -.203E+01 0.855E+01 0.140E+01   0.477E-04 0.346E-04 -.141E-03
   0.498E+02 0.175E+02 0.137E+01   -.556E+02 -.171E+02 -.901E-01   0.652E+01 0.126E+01 -.109E+01   0.164E-04 0.669E-04 -.115E-03
   0.195E+02 -.138E+02 -.471E+02   -.234E+02 0.165E+02 0.531E+02   0.317E+01 -.215E+01 -.648E+01   0.157E-03 -.245E-04 -.179E-04
   -.300E+02 0.357E+02 -.226E+02   0.338E+02 -.389E+02 0.235E+02   -.369E+01 0.396E+01 -.243E+01   0.173E-03 -.131E-04 -.180E-04
   -.260E+02 -.741E+02 0.130E+02   0.275E+02 0.817E+02 -.142E+02   -.114E+01 -.761E+01 0.153E+01   -.125E-03 -.620E-04 0.158E-04
   0.392E+02 0.743E+01 -.158E+01   -.414E+02 -.780E+01 0.161E+01   0.466E+01 -.145E+00 0.675E+00   0.226E-04 0.204E-03 -.933E-04
   -.528E+01 0.291E+02 -.293E+02   0.553E+01 -.305E+02 0.311E+02   -.486E+00 0.165E+01 -.410E+01   -.113E-03 0.377E-04 -.739E-04
   0.245E+02 -.462E+02 -.963E+01   -.257E+02 0.502E+02 0.105E+02   0.219E+01 -.499E+01 -.200E+01   -.208E-03 0.279E-04 0.199E-04
   0.941E+01 -.349E+02 0.278E+02   -.874E+01 0.367E+02 -.306E+02   -.331E+00 -.262E+01 0.450E+01   -.574E-04 -.250E-04 -.175E-03
   0.677E+02 -.296E+02 -.514E+02   -.776E+02 0.338E+02 0.601E+02   0.715E+01 -.277E+01 -.680E+01   -.383E-04 -.106E-03 0.391E-04
   0.675E+02 0.602E+00 0.190E+02   -.770E+02 -.159E+01 -.231E+02   0.804E+01 0.653E+00 0.305E+01   0.146E-03 -.144E-03 0.274E-03
   0.286E+01 -.668E+02 -.130E+02   -.820E+00 0.756E+02 0.149E+02   -.100E+01 -.793E+01 -.199E+01   0.142E-03 -.177E-03 0.266E-03
   0.120E+02 0.144E+02 -.473E+02   -.121E+02 -.141E+02 0.480E+02   0.161E+01 0.866E+00 -.404E+01   0.120E-03 -.923E-04 -.162E-03
   0.459E+02 -.746E+01 0.345E+02   -.554E+02 0.102E+02 -.416E+02   0.758E+01 -.200E+01 0.525E+01   0.179E-03 0.226E-04 0.118E-03
   -.267E+02 -.415E+02 0.380E+02   0.263E+02 0.423E+02 -.379E+02   -.249E+01 -.319E+01 0.221E+01   0.171E-04 -.378E-04 0.213E-03
   0.248E+02 -.905E+01 -.196E+02   -.256E+02 0.100E+02 0.211E+02   0.337E+01 -.915E+00 -.257E+01   -.293E-04 0.202E-03 0.132E-03
   -.444E+02 -.640E+02 -.320E+02   0.536E+02 0.719E+02 0.356E+02   -.699E+01 -.629E+01 -.294E+01   0.169E-03 -.190E-03 0.489E-04
   -.137E+02 0.232E+02 0.210E+00   0.153E+02 -.261E+02 -.979E+00   -.233E+01 0.464E+01 0.909E+00   0.145E-03 -.413E-03 -.222E-05
   0.590E+02 0.535E+01 0.100E+02   -.646E+02 -.698E+01 -.939E+01   0.612E+01 0.123E+01 0.871E+00   0.236E-03 -.126E-04 0.101E-03
   -.315E+01 0.105E+02 0.554E+02   0.476E+01 -.108E+02 -.603E+02   -.100E+01 0.907E+00 0.623E+01   0.183E-04 -.355E-04 0.441E-03
   0.455E+02 0.163E+02 -.490E+01   -.514E+02 -.177E+02 0.592E+01   0.646E+01 0.137E+01 -.795E+00   0.465E-04 0.126E-03 -.206E-03
   -.365E+02 0.435E+02 -.135E+02   0.415E+02 -.510E+02 0.141E+02   -.491E+01 0.647E+01 0.322E-02   0.858E-05 0.949E-04 -.159E-03
   0.358E+02 -.727E+00 0.433E+02   -.366E+02 0.929E+00 -.441E+02   0.346E+01 0.311E-01 0.372E+01   0.595E-04 -.424E-04 0.166E-03
   0.288E+02 -.159E+02 -.250E+02   -.292E+02 0.161E+02 0.258E+02   0.233E+01 -.442E+00 -.319E+01   0.666E-04 0.716E-04 -.192E-03
   0.350E+02 0.298E+02 -.334E+02   -.395E+02 -.309E+02 0.354E+02   0.498E+01 0.205E+01 -.344E+01   -.462E-04 0.183E-03 -.200E-03
   -.482E+02 0.741E+01 -.543E+02   0.526E+02 -.832E+01 0.580E+02   -.482E+01 0.120E+01 -.495E+01   -.863E-04 0.187E-03 -.299E-03
   -.186E+02 -.432E+02 -.282E+02   0.229E+02 0.521E+02 0.346E+02   -.389E+01 -.703E+01 -.390E+01   -.958E-04 0.195E-04 0.886E-04
   0.573E+02 0.496E+02 -.363E+02   -.585E+02 -.509E+02 0.380E+02   0.343E+01 0.399E+01 -.282E+01   -.405E-05 -.368E-05 0.509E-04
   0.326E+02 -.251E+01 -.628E+02   -.373E+02 0.575E+01 0.735E+02   0.335E+01 -.166E+01 -.854E+01   -.680E-04 0.276E-03 0.233E-04
   -.772E+01 -.448E+02 0.441E+02   0.104E+02 0.524E+02 -.501E+02   -.204E+01 -.613E+01 0.582E+01   -.309E-04 0.303E-03 0.886E-04
   -.258E+02 -.182E+02 -.515E+02   0.292E+02 0.208E+02 0.556E+02   -.290E+01 -.262E+01 -.563E+01   0.183E-03 -.813E-04 -.102E-03
   0.457E+02 0.792E+01 -.704E+01   -.520E+02 -.928E+01 0.951E+01   0.610E+01 0.780E+00 -.282E+01   0.603E-04 -.880E-04 -.143E-03
   -.873E+00 -.135E+02 0.491E+02   -.114E+01 0.130E+02 -.559E+02   0.129E+01 -.135E+01 0.658E+01   0.167E-04 -.354E-03 0.240E-03
   -.420E+02 -.692E+02 -.435E+01   0.474E+02 0.825E+02 0.597E+01   -.338E+01 -.940E+01 0.239E+00   -.390E-04 -.399E-03 0.177E-03
   -.910E+01 0.118E+01 0.137E+02   0.855E+01 -.942E+00 -.135E+02   -.122E+01 0.566E+00 0.178E+01   -.554E-04 -.204E-04 0.846E-05
   -.226E+02 -.243E+02 -.308E+02   0.243E+02 0.258E+02 0.332E+02   -.277E+01 -.283E+01 -.396E+01   -.519E-05 0.299E-04 -.433E-04
   0.855E+01 -.404E+02 0.122E+02   -.984E+01 0.432E+02 -.125E+02   0.235E+01 -.485E+01 0.504E+00   -.528E-04 0.248E-05 0.275E-03
   -.794E+02 -.391E+01 -.146E+02   0.942E+02 0.526E+01 0.196E+02   -.102E+02 -.666E+00 -.309E+01   -.126E-04 0.982E-04 0.195E-03
   0.546E+02 0.161E+02 -.717E+01   -.615E+02 -.163E+02 0.760E+01   0.725E+01 0.607E+00 -.634E+00   0.232E-04 0.659E-04 -.264E-04
   -.318E+02 0.890E+02 -.372E+01   0.349E+02 -.968E+02 0.465E+01   -.294E+01 0.777E+01 -.651E+00   -.267E-04 0.136E-04 0.131E-04
 -----------------------------------------------------------------------------------------------
   0.247E+03 -.111E+03 -.134E+03   -.504E-12 0.171E-12 -.237E-12   -.247E+03 0.111E+03 0.134E+03   0.208E-02 0.784E-03 0.604E-03
 
 
 POSITION                                       TOTAL-FORCE (eV/Angst)
 -----------------------------------------------------------------------------------
      5.69341      3.77490      1.28080         2.991949      0.110863     -1.016384
      1.24440      7.95647      5.96829         0.042777     -1.545306      1.321039
      0.84765      5.52625      7.38332        -2.158187      0.068294     -0.302591
      0.68254      7.49905      1.63968         2.147125     -1.383412     -3.271938
      7.34822      0.18288      6.86419        -1.115011      0.532526     -1.761675
      7.06967      3.85530      7.43344         0.229249     -1.613814      2.083058
      5.63879      1.87556      7.75932        -4.134206      3.581134      1.818625
      0.13454      2.09568      1.80300         4.384806     -0.938779      3.952294
      2.74678      8.41872      9.59909        -1.170883      1.819273      0.677633
      8.24363      3.85368      0.21705        -0.579937      1.458094      0.480307
      2.67274      2.08845      6.92684         2.162879      0.104722      1.021056
      9.45128      3.24802      6.58723        -1.506101      0.263115      0.242246
      7.13410      8.01310      8.55200         0.508972     -1.689843      1.592550
      6.64275      0.43076      4.26413        -3.420771      0.677698     -1.294147
      3.39393      5.98584      8.34537        -1.903797      1.040779      3.860756
      2.27545      1.34649      9.33074         2.542037     -0.631625     -2.903807
      4.57553      1.38007      0.90302         0.537308     -0.399482      0.802330
      6.70565      6.41553      4.11096         0.762654     -1.974592      5.586889
      8.28370      9.31400      2.32889         0.572744      2.721708     -0.999429
      3.35429      3.56444      4.31933        -1.805631     -3.067126     -0.743095
      4.05316      1.16593      3.72060        -1.159897     -0.866158     -2.979423
      0.03798      0.45249      6.19075        -0.335714      1.419004     -0.858127
      1.42618      0.35638      3.66375        -4.587840      0.406441     -0.093271
      3.66890      8.18084      4.90610         0.484987     -1.357263      2.582961
      3.47044      5.33450      1.10671        -2.727019     -4.294592     -1.059968
      4.56969      7.21490      2.57170         0.737816     -2.803154     -2.072601
      5.44539      6.40043      6.98767         0.677989      0.617757      0.743177
      6.25553      3.49959      3.91328        -1.031467     -2.377268     -1.444594
      9.17293      6.41499      9.34168         1.964994      0.166532     -0.141911
      5.90715      8.93706      0.96479        -5.551166      1.303659     -1.745746
      9.53855      6.52453      3.92067        -0.752050     -0.374634      0.225744
      5.24039      4.61413      1.19475        -1.079051      0.758548     -0.089777
      6.65914      3.99341      0.80380        -1.598222     -1.193553      1.079554
      0.66679      7.82420      5.18790        -0.035568     -0.639730     -0.178583
      1.11238      7.11586      6.56261        -0.233239      1.386599     -1.304526
      0.48206      4.57660      7.35129         0.336846      0.331961     -0.462718
      1.66702      5.63221      7.86297         2.155585     -0.673506      0.679192
      0.38915      8.33916      1.85550        -1.338017      3.447563      0.452987
      0.47778      7.07755      2.44558        -0.792708     -1.943979      2.581798
      6.70939      0.14473      6.07587         1.227252      0.469452      0.178732
      7.06500      9.21229      7.34626         0.549379     -1.473347      1.253614
      6.64375      4.52762      6.90823        -0.964985      0.810239     -0.214626
      6.38235      3.18345      7.91153         0.846426      0.982270     -1.895347
      5.04303      1.64357      8.50952        -0.079788      0.454546     -0.253495
      6.13958      1.12815      7.70246         3.518409     -3.835960     -0.864117
      9.20694      2.51800      1.47570        -3.070002      2.370570     -1.332509
      0.45143      2.53668      2.73470        -1.281904     -1.444533     -3.052862
      2.44314      9.48704      9.50920         0.663043     -3.040718      0.087546
      2.26919      7.98539      0.56951         0.323806      1.029720     -0.923950
      7.89475      3.92357      9.12065        -0.254691     -0.784187     -1.206956
      8.45135      4.84963      0.23024         0.810661     -0.227915      0.372612
      1.77759      1.92007      6.78587        -3.191492     -0.945660     -0.897013
      2.89745      2.69390      6.20671         0.584022      0.822758     -0.631765
      9.67949      2.33456      6.44138         1.204420     -1.534904     -0.389417
      8.45898      3.04399      6.75631         0.700339      1.637148      0.190942
      6.72474      8.29563      9.41120        -0.759260      0.540665     -0.446117
      7.78660      7.31400      8.99033         0.166614      0.765788     -1.477030
      6.78400      1.39181      4.06378         0.383605      0.072579      0.397881
      5.54033      0.49125      4.08068         2.473854     -0.509832      0.699045
      3.51119      5.59600      9.38387        -0.231042      0.339325     -2.255433
      2.98292      6.89567      8.71890         1.069363     -0.961249     -1.091885
      2.31190      1.89212      8.40759         0.339886     -0.860990      1.673658
      1.62937      1.61000      0.11104        -2.819531      1.380396      1.928791
      3.67623      1.31914      0.57074        -1.392423     -0.327350     -1.033114
      4.67554      2.32127      1.13716         1.029705      0.860354     -0.036169
      6.25646      6.17933      5.14655         1.569857      1.240307     -3.359400
      5.94222      6.60875      3.60357        -1.948128      0.787771     -1.809599
      8.87115      0.31947      1.81317        -2.875774     -2.357673      2.316657
      7.43260      9.64035      2.98448         2.510571      0.050117     -1.013152
      4.01834      4.14611      4.59513         2.186730      1.627633      0.721466
      3.83197      2.62509      4.13254        -0.691148      1.793686      0.134325
      3.04247      0.96249      3.57070         0.558369     -0.403464      1.484905
      4.21407      1.03089      2.70110         0.618289      0.642725      1.371909
      8.86757      0.21482      6.30956         0.509383     -0.083025      0.212053
      0.60458      9.47575      6.18538         0.179973     -1.020440      0.682800
      0.66531      0.34916      2.85995         2.632141      0.218741      2.955289
      0.73409      0.48054      4.58582         1.919253     -0.227267     -2.447321
      2.87065      7.83505      5.47039         0.419338      0.954772     -1.435586
      4.36496      8.00149      5.62776        -0.461962      0.305551     -1.249263
      3.86943      6.07039      1.55191         0.396551      1.807836      2.488227
      2.86152      4.64244      1.64468         2.184905      2.719049     -1.140765
      4.23256      7.41086      3.42653        -1.424713      1.579599      2.169602
      4.78201      7.91912      1.95522         0.595693      1.436407     -0.227775
      5.87131      6.78634      7.83316         0.489463     -0.002434     -1.545569
      4.54079      6.28376      7.41599        -0.151398     -0.576324     -0.363021
      6.06310      3.70046      2.93634        -0.722022     -1.806015     -0.243796
      6.57129      4.36250      3.89479         2.032185      3.860158      1.856707
      0.06967      6.07391      8.42980        -1.744090      0.788923      1.968529
      9.72118      6.95096      0.27035        -1.042742     -1.359889     -1.553111
      5.47127      0.09789      0.87801         1.060797     -2.050073      0.181874
      6.76999      9.01404      1.22859         4.549220      0.682727      1.925377
      8.53897      6.41229      4.00842         0.388152      0.479218     -0.206936
      0.05079      5.61231      3.99488         0.191204     -0.126239      0.284674
 -----------------------------------------------------------------------------------
    total drift:                               -0.007126      0.036270     -0.002184


--------------------------------------------------------------------------------------------------------



  FREE ENERGIE OF THE ION-ELECTRON SYSTEM (eV)
  ---------------------------------------------------
  free  energy   TOTEN  =      -449.52952627 eV

  energy  without entropy=     -449.52952627  energy(sigma->0) =     -449.52952627
 


--------------------------------------------------------------------------------------------------------


    POTLOK:  cpu time    0.0181: real time    0.0182


--------------------------------------------------------------------------------------------------------


     LOOP+:  cpu time 1644.3252: real time 1659.0172
    4ORBIT:  cpu time    0.0000: real time    0.0000

 total amount of memory used by VASP MPI-rank0   666496. kBytes
=======================================================================

   base      :      30000. kBytes
   nonlr-proj:       2420. kBytes
   fftplans  :       1123. kBytes
   grid      :       1850. kBytes
   one-center:         15. kBytes
   wavefun   :     631088. kBytes
 
  
  
 General timing and accounting informations for this job:
 ========================================================
  
                  Total CPU time used (sec):     1730.860
                            User time (sec):     1726.425
                          System time (sec):        4.435
                         Elapsed time (sec):     1747.373
  
                   Maximum memory used (kb):     1493456.
                   Average memory used (kb):           0.
  
                          Minor page faults:       222648
                          Major page faults:         1496
                 Voluntary context switches:        19541
