<?xml version="1.0" encoding="ISO-8859-1"?>
<modeling>
 <generator>
  <i name="program" type="string">vasp </i>
  <i name="version" type="string">5.4.4.18Apr17-6-g9f103f2a35  </i>
  <i name="subversion" type="string">(build Dec 06 2019 17:20:26) complex            parallel </i>
  <i name="platform" type="string">LinuxIFC </i>
  <i name="date" type="string">2025 07 03 </i>
  <i name="time" type="string">17:37:51 </i>
 </generator>
 <incar>
  <i type="string" name="SYSTEM"> ice</i>
  <i type="int" name="ISTART">     1</i>
  <i type="string" name="PREC">normal</i>
  <i type="string" name="ALGO"> VeryFast</i>
  <i type="int" name="IMIX">     4</i>
  <i type="int" name="MAXMIX">    40</i>
  <i type="int" name="ICHARG">     1</i>
  <i type="int" name="NELM">   500</i>
  <i type="int" name="NELMIN">     4</i>
  <i type="int" name="IBRION">    -1</i>
  <i name="EDIFF">      0.00000100</i>
  <i type="int" name="NSW">     0</i>
  <i type="int" name="ISIF">     2</i>
  <i name="ENCUT">    400.00000000</i>
  <i name="POTIM">      0.50000000</i>
  <i type="string" name="LREAL"> AUTO</i>
  <i type="int" name="ISMEAR">    -1</i>
  <i name="SIGMA">      0.05000000</i>
  <i type="int" name="NWRITE">     0</i>
  <i type="logical" name="LWAVE"> F  </i>
  <i type="logical" name="LCHARG"> F  </i>
  <i type="logical" name="LVTOT"> T  </i>
  <i type="logical" name="LVHAR"> T  </i>
  <v type="int" name="KPOINT_BSE">    -1     0     0     0</v>
  <i type="int" name="NELM">   500</i>
 </incar>
 <structure name="primitive_cell" >
  <crystal>
   <varray name="basis" >
    <v>       9.81490000       0.00000000       0.00000000 </v>
    <v>       0.00000000       9.81490000       0.00000000 </v>
    <v>       0.00000000       0.00000000       9.81490000 </v>
   </varray>
   <i name="volume">    945.49151840 </i>
   <varray name="rec_basis" >
    <v>       0.10188591       0.00000000       0.00000000 </v>
    <v>       0.00000000       0.10188591       0.00000000 </v>
    <v>       0.00000000       0.00000000       0.10188591 </v>
   </varray>
  </crystal>
  <varray name="positions" >
   <v>      -0.41992175       0.38460911       0.13049547 </v>
   <v>      -0.46607811       0.47011483       0.12172819 </v>
   <v>      -0.32152747       0.40687220       0.08189589 </v>
   <v>      -0.38225555       0.37702473       0.29917167 </v>
   <v>       0.47637164       0.23650470       0.11586058 </v>
   <v>       0.46618203       0.14060969       0.09200511 </v>
   <v>      -0.36264964       0.35655891       0.39870809 </v>
   <v>       0.35358893      -0.45648962       0.11275815 </v>
   <v>      -0.16009027       0.39263569       0.02211454 </v>
   <v>      -0.33047815       0.44447727       0.39682422 </v>
   <v>       0.39424039      -0.38151280       0.15811776 </v>
   <v>      -0.19563623       0.39975649      -0.07073378 </v>
   <v>       0.29154856       0.47299922       0.16756972 </v>
   <v>      -0.13892653       0.49410896       0.02345821 </v>
   <v>       0.37455603       0.13440178       0.05815057 </v>
   <v>      -0.34972847       0.32434869      -0.19392658 </v>
   <v>       0.35774078      -0.42984646      -0.04391588 </v>
   <v>      -0.48618631       0.16745662      -0.13299983 </v>
   <v>       0.42935435       0.10503316       0.27520403 </v>
   <v>       0.39042374       0.26745968       0.42104759 </v>
   <v>      -0.39457152      -0.32666150       0.36715300 </v>
   <v>      -0.44255469       0.00997320       0.08945674 </v>
   <v>       0.40941222       0.42243018       0.46817899 </v>
   <v>      -0.06194296       0.25654872       0.15035303 </v>
   <v>      -0.30880600       0.14180583       0.41404192 </v>
   <v>      -0.42548676       0.19109313      -0.20943464 </v>
   <v>       0.34175488       0.36316621       0.44007886 </v>
   <v>       0.46558702      -0.26490336       0.26201999 </v>
   <v>      -0.27970025       0.39280074      -0.24263721 </v>
   <v>       0.41295989       0.11879184       0.37907671 </v>
   <v>      -0.31678876      -0.34634790       0.41884889 </v>
   <v>       0.34579364      -0.39012726      -0.14972440 </v>
   <v>       0.48721943      -0.19315327       0.19920937 </v>
   <v>      -0.43551845       0.05005176       0.41576379 </v>
   <v>      -0.37446332       0.11494259      -0.21522787 </v>
   <v>      -0.32309550       0.46130068      -0.29614871 </v>
   <v>      -0.40179625      -0.30856759      -0.20191138 </v>
   <v>       0.43123822      -0.24493780       0.34911512 </v>
   <v>       0.30998482       0.09806376       0.36380401 </v>
   <v>       0.23183629       0.13718836      -0.04932908 </v>
   <v>      -0.32319738       0.04388817       0.43445476 </v>
   <v>      -0.36255489      -0.37041335      -0.47563908 </v>
   <v>       0.46264251      -0.35977341      -0.24441512 </v>
   <v>       0.01370793       0.21352026       0.18370029 </v>
   <v>      -0.20665519      -0.25480647      -0.08401196 </v>
   <v>      -0.24272280      -0.01778469       0.30407646 </v>
   <v>      -0.39814466      -0.08943963       0.09829820 </v>
   <v>      -0.31023342      -0.08159645       0.12517601 </v>
   <v>      -0.06540790      -0.34640292      -0.04821425 </v>
   <v>       0.23555003       0.19278036      -0.14338506 </v>
   <v>      -0.09615442       0.03254949       0.18473647 </v>
   <v>      -0.12999929      -0.34667801       0.40840151 </v>
   <v>       0.16600984       0.16403631       0.01131341 </v>
   <v>       0.30391751      -0.29742840      -0.11166696 </v>
   <v>      -0.44519149      -0.34788638      -0.28805490 </v>
   <v>      -0.31484376      -0.15479220      -0.04113134 </v>
   <v>       0.04599456       0.25845195       0.27862739 </v>
   <v>      -0.15600770      -0.05103465       0.23728107 </v>
   <v>      -0.27313574      -0.18357803      -0.12867171 </v>
   <v>      -0.13814914       0.31013969      -0.31162722 </v>
   <v>      -0.00954885      -0.29179513       0.02754435 </v>
   <v>       0.00517479      -0.42818470       0.40702198 </v>
   <v>      -0.02815617      -0.33524234       0.39946102 </v>
   <v>       0.27231454       0.21278362      -0.29425262 </v>
   <v>       0.24892154      -0.03340421      -0.03114683 </v>
   <v>       0.00709829      -0.38115416      -0.14112217 </v>
   <v>       0.23119848      -0.18640129       0.05802484 </v>
   <v>       0.16984585      -0.42615717      -0.19887416 </v>
   <v>       0.27985817      -0.14225107      -0.02198759 </v>
   <v>       0.29520932       0.27447045      -0.36762371 </v>
   <v>       0.04867946      -0.27889739       0.24917014 </v>
   <v>      -0.25131993       0.01863340      -0.30063577 </v>
   <v>      -0.03704806       0.33092747      -0.32885409 </v>
   <v>      -0.28017606      -0.06139767      -0.25151963 </v>
   <v>       0.14530764       0.03631010       0.37328450 </v>
   <v>       0.04911532       0.46629105      -0.25100714 </v>
   <v>       0.37380921      -0.16648769       0.49986245 </v>
   <v>       0.06954151      -0.23595248       0.16706029 </v>
   <v>       0.06778592       0.03557499       0.29138860 </v>
   <v>      -0.31640771       0.01474585      -0.38095447 </v>
   <v>       0.18111137       0.19562808      -0.30861547 </v>
   <v>       0.44472791      -0.18476092      -0.42661056 </v>
   <v>      -0.01379596       0.23785877      -0.34371415 </v>
   <v>       0.08636349      -0.43695300      -0.24774374 </v>
   <v>       0.03964870      -0.15035711       0.18904930 </v>
   <v>       0.29247878      -0.20171882      -0.44264435 </v>
   <v>       0.07479383       0.04896025       0.46723044 </v>
   <v>      -0.09651917       0.02188733      -0.35714475 </v>
   <v>       0.00387014       0.04610266      -0.36924981 </v>
   <v>       0.11333585      -0.27499414      -0.33136252 </v>
   <v>       0.06793650      -0.20282428      -0.47142610 </v>
   <v>       0.12678682      -0.18934783      -0.39191535 </v>
   <v>       0.06159788      -0.03455430      -0.36979694 </v>
  </varray>
 </structure>
 <varray name="primitive_index" >
  <v type="int" >        1 </v>
  <v type="int" >       32 </v>
  <v type="int" >       33 </v>
  <v type="int" >       86 </v>
  <v type="int" >       65 </v>
  <v type="int" >       17 </v>
  <v type="int" >       28 </v>
  <v type="int" >       25 </v>
  <v type="int" >       10 </v>
  <v type="int" >       87 </v>
  <v type="int" >       80 </v>
  <v type="int" >       50 </v>
  <v type="int" >       81 </v>
  <v type="int" >       51 </v>
  <v type="int" >       64 </v>
  <v type="int" >       43 </v>
  <v type="int" >       60 </v>
  <v type="int" >       44 </v>
  <v type="int" >       73 </v>
  <v type="int" >       71 </v>
  <v type="int" >       67 </v>
  <v type="int" >       90 </v>
  <v type="int" >       70 </v>
  <v type="int" >       46 </v>
  <v type="int" >       58 </v>
  <v type="int" >        7 </v>
  <v type="int" >       20 </v>
  <v type="int" >       26 </v>
  <v type="int" >        6 </v>
  <v type="int" >       21 </v>
  <v type="int" >       18 </v>
  <v type="int" >       15 </v>
  <v type="int" >       83 </v>
  <v type="int" >       59 </v>
  <v type="int" >       45 </v>
  <v type="int" >       42 </v>
  <v type="int" >       84 </v>
  <v type="int" >       82 </v>
  <v type="int" >       72 </v>
  <v type="int" >       16 </v>
  <v type="int" >       14 </v>
  <v type="int" >       66 </v>
  <v type="int" >       85 </v>
  <v type="int" >        8 </v>
  <v type="int" >       57 </v>
  <v type="int" >       69 </v>
  <v type="int" >       30 </v>
  <v type="int" >       91 </v>
  <v type="int" >       29 </v>
  <v type="int" >       62 </v>
  <v type="int" >       68 </v>
  <v type="int" >       92 </v>
  <v type="int" >       63 </v>
  <v type="int" >       61 </v>
  <v type="int" >       27 </v>
  <v type="int" >       56 </v>
  <v type="int" >       47 </v>
  <v type="int" >       19 </v>
  <v type="int" >       13 </v>
  <v type="int" >       55 </v>
  <v type="int" >       89 </v>
  <v type="int" >       93 </v>
  <v type="int" >       31 </v>
  <v type="int" >       11 </v>
  <v type="int" >       48 </v>
  <v type="int" >       88 </v>
  <v type="int" >       49 </v>
  <v type="int" >       37 </v>
  <v type="int" >        9 </v>
  <v type="int" >       53 </v>
  <v type="int" >       39 </v>
  <v type="int" >        5 </v>
  <v type="int" >       12 </v>
  <v type="int" >       41 </v>
  <v type="int" >       23 </v>
  <v type="int" >       36 </v>
  <v type="int" >       24 </v>
  <v type="int" >        4 </v>
  <v type="int" >       76 </v>
  <v type="int" >       40 </v>
  <v type="int" >       52 </v>
  <v type="int" >       79 </v>
  <v type="int" >       54 </v>
  <v type="int" >        3 </v>
  <v type="int" >       38 </v>
  <v type="int" >       78 </v>
  <v type="int" >       77 </v>
  <v type="int" >       74 </v>
  <v type="int" >       22 </v>
  <v type="int" >       35 </v>
  <v type="int" >       34 </v>
  <v type="int" >        2 </v>
  <v type="int" >       75 </v>
 </varray>
 <kpoints>
  <generation param="Gamma">
   <v type="int" name="divisions">      10       10       10 </v>
   <v name="usershift">      0.00000000       0.00000000       0.00000000 </v>
   <v name="genvec1">      0.10000000       0.00000000       0.00000000 </v>
   <v name="genvec2">      0.00000000       0.10000000       0.00000000 </v>
   <v name="genvec3">      0.00000000       0.00000000       0.10000000 </v>
   <v name="shift">      0.00000000       0.00000000       0.00000000 </v>
  </generation>
  <varray name="kpointlist" >
   <v>       0.00000000       0.00000000       0.00000000 </v>
   <v>       0.10000000       0.00000000       0.00000000 </v>
   <v>       0.20000000       0.00000000       0.00000000 </v>
   <v>       0.30000000       0.00000000       0.00000000 </v>
   <v>       0.40000000       0.00000000       0.00000000 </v>
   <v>       0.50000000       0.00000000       0.00000000 </v>
   <v>       0.00000000       0.10000000       0.00000000 </v>
   <v>       0.10000000       0.10000000       0.00000000 </v>
   <v>       0.20000000       0.10000000       0.00000000 </v>
   <v>       0.30000000       0.10000000       0.00000000 </v>
   <v>       0.40000000       0.10000000       0.00000000 </v>
   <v>       0.50000000       0.10000000       0.00000000 </v>
   <v>      -0.40000000       0.10000000       0.00000000 </v>
   <v>      -0.30000000       0.10000000       0.00000000 </v>
   <v>      -0.20000000       0.10000000       0.00000000 </v>
   <v>      -0.10000000       0.10000000       0.00000000 </v>
   <v>       0.00000000       0.20000000       0.00000000 </v>
   <v>       0.10000000       0.20000000       0.00000000 </v>
   <v>       0.20000000       0.20000000       0.00000000 </v>
   <v>       0.30000000       0.20000000       0.00000000 </v>
   <v>       0.40000000       0.20000000       0.00000000 </v>
   <v>       0.50000000       0.20000000       0.00000000 </v>
   <v>      -0.40000000       0.20000000       0.00000000 </v>
   <v>      -0.30000000       0.20000000       0.00000000 </v>
   <v>      -0.20000000       0.20000000       0.00000000 </v>
   <v>      -0.10000000       0.20000000       0.00000000 </v>
   <v>       0.00000000       0.30000000       0.00000000 </v>
   <v>       0.10000000       0.30000000       0.00000000 </v>
   <v>       0.20000000       0.30000000       0.00000000 </v>
   <v>       0.30000000       0.30000000       0.00000000 </v>
   <v>       0.40000000       0.30000000       0.00000000 </v>
   <v>       0.50000000       0.30000000       0.00000000 </v>
   <v>      -0.40000000       0.30000000       0.00000000 </v>
   <v>      -0.30000000       0.30000000       0.00000000 </v>
   <v>      -0.20000000       0.30000000       0.00000000 </v>
   <v>      -0.10000000       0.30000000       0.00000000 </v>
   <v>       0.00000000       0.40000000       0.00000000 </v>
   <v>       0.10000000       0.40000000       0.00000000 </v>
   <v>       0.20000000       0.40000000       0.00000000 </v>
   <v>       0.30000000       0.40000000       0.00000000 </v>
   <v>       0.40000000       0.40000000       0.00000000 </v>
   <v>       0.50000000       0.40000000       0.00000000 </v>
   <v>      -0.40000000       0.40000000       0.00000000 </v>
   <v>      -0.30000000       0.40000000       0.00000000 </v>
   <v>      -0.20000000       0.40000000       0.00000000 </v>
   <v>      -0.10000000       0.40000000       0.00000000 </v>
   <v>       0.00000000       0.50000000       0.00000000 </v>
   <v>       0.10000000       0.50000000       0.00000000 </v>
   <v>       0.20000000       0.50000000       0.00000000 </v>
   <v>       0.30000000       0.50000000       0.00000000 </v>
   <v>       0.40000000       0.50000000       0.00000000 </v>
   <v>       0.50000000       0.50000000       0.00000000 </v>
   <v>       0.00000000       0.00000000       0.10000000 </v>
   <v>       0.10000000       0.00000000       0.10000000 </v>
   <v>       0.20000000       0.00000000       0.10000000 </v>
   <v>       0.30000000       0.00000000       0.10000000 </v>
   <v>       0.40000000       0.00000000       0.10000000 </v>
   <v>       0.50000000       0.00000000       0.10000000 </v>
   <v>      -0.40000000       0.00000000       0.10000000 </v>
   <v>      -0.30000000       0.00000000       0.10000000 </v>
   <v>      -0.20000000       0.00000000       0.10000000 </v>
   <v>      -0.10000000       0.00000000       0.10000000 </v>
   <v>       0.00000000       0.10000000       0.10000000 </v>
   <v>       0.10000000       0.10000000       0.10000000 </v>
   <v>       0.20000000       0.10000000       0.10000000 </v>
   <v>       0.30000000       0.10000000       0.10000000 </v>
   <v>       0.40000000       0.10000000       0.10000000 </v>
   <v>       0.50000000       0.10000000       0.10000000 </v>
   <v>      -0.40000000       0.10000000       0.10000000 </v>
   <v>      -0.30000000       0.10000000       0.10000000 </v>
   <v>      -0.20000000       0.10000000       0.10000000 </v>
   <v>      -0.10000000       0.10000000       0.10000000 </v>
   <v>       0.00000000       0.20000000       0.10000000 </v>
   <v>       0.10000000       0.20000000       0.10000000 </v>
   <v>       0.20000000       0.20000000       0.10000000 </v>
   <v>       0.30000000       0.20000000       0.10000000 </v>
   <v>       0.40000000       0.20000000       0.10000000 </v>
   <v>       0.50000000       0.20000000       0.10000000 </v>
   <v>      -0.40000000       0.20000000       0.10000000 </v>
   <v>      -0.30000000       0.20000000       0.10000000 </v>
   <v>      -0.20000000       0.20000000       0.10000000 </v>
   <v>      -0.10000000       0.20000000       0.10000000 </v>
   <v>       0.00000000       0.30000000       0.10000000 </v>
   <v>       0.10000000       0.30000000       0.10000000 </v>
   <v>       0.20000000       0.30000000       0.10000000 </v>
   <v>       0.30000000       0.30000000       0.10000000 </v>
   <v>       0.40000000       0.30000000       0.10000000 </v>
   <v>       0.50000000       0.30000000       0.10000000 </v>
   <v>      -0.40000000       0.30000000       0.10000000 </v>
   <v>      -0.30000000       0.30000000       0.10000000 </v>
   <v>      -0.20000000       0.30000000       0.10000000 </v>
   <v>      -0.10000000       0.30000000       0.10000000 </v>
   <v>       0.00000000       0.40000000       0.10000000 </v>
   <v>       0.10000000       0.40000000       0.10000000 </v>
   <v>       0.20000000       0.40000000       0.10000000 </v>
   <v>       0.30000000       0.40000000       0.10000000 </v>
   <v>       0.40000000       0.40000000       0.10000000 </v>
   <v>       0.50000000       0.40000000       0.10000000 </v>
   <v>      -0.40000000       0.40000000       0.10000000 </v>
   <v>      -0.30000000       0.40000000       0.10000000 </v>
   <v>      -0.20000000       0.40000000       0.10000000 </v>
   <v>      -0.10000000       0.40000000       0.10000000 </v>
   <v>       0.00000000       0.50000000       0.10000000 </v>
   <v>       0.10000000       0.50000000       0.10000000 </v>
   <v>       0.20000000       0.50000000       0.10000000 </v>
   <v>       0.30000000       0.50000000       0.10000000 </v>
   <v>       0.40000000       0.50000000       0.10000000 </v>
   <v>       0.50000000       0.50000000       0.10000000 </v>
   <v>      -0.40000000       0.50000000       0.10000000 </v>
   <v>      -0.30000000       0.50000000       0.10000000 </v>
   <v>      -0.20000000       0.50000000       0.10000000 </v>
   <v>      -0.10000000       0.50000000       0.10000000 </v>
   <v>       0.00000000      -0.40000000       0.10000000 </v>
   <v>       0.10000000      -0.40000000       0.10000000 </v>
   <v>       0.20000000      -0.40000000       0.10000000 </v>
   <v>       0.30000000      -0.40000000       0.10000000 </v>
   <v>       0.40000000      -0.40000000       0.10000000 </v>
   <v>       0.50000000      -0.40000000       0.10000000 </v>
   <v>      -0.40000000      -0.40000000       0.10000000 </v>
   <v>      -0.30000000      -0.40000000       0.10000000 </v>
   <v>      -0.20000000      -0.40000000       0.10000000 </v>
   <v>      -0.10000000      -0.40000000       0.10000000 </v>
   <v>       0.00000000      -0.30000000       0.10000000 </v>
   <v>       0.10000000      -0.30000000       0.10000000 </v>
   <v>       0.20000000      -0.30000000       0.10000000 </v>
   <v>       0.30000000      -0.30000000       0.10000000 </v>
   <v>       0.40000000      -0.30000000       0.10000000 </v>
   <v>       0.50000000      -0.30000000       0.10000000 </v>
   <v>      -0.40000000      -0.30000000       0.10000000 </v>
   <v>      -0.30000000      -0.30000000       0.10000000 </v>
   <v>      -0.20000000      -0.30000000       0.10000000 </v>
   <v>      -0.10000000      -0.30000000       0.10000000 </v>
   <v>       0.00000000      -0.20000000       0.10000000 </v>
   <v>       0.10000000      -0.20000000       0.10000000 </v>
   <v>       0.20000000      -0.20000000       0.10000000 </v>
   <v>       0.30000000      -0.20000000       0.10000000 </v>
   <v>       0.40000000      -0.20000000       0.10000000 </v>
   <v>       0.50000000      -0.20000000       0.10000000 </v>
   <v>      -0.40000000      -0.20000000       0.10000000 </v>
   <v>      -0.30000000      -0.20000000       0.10000000 </v>
   <v>      -0.20000000      -0.20000000       0.10000000 </v>
   <v>      -0.10000000      -0.20000000       0.10000000 </v>
   <v>       0.00000000      -0.10000000       0.10000000 </v>
   <v>       0.10000000      -0.10000000       0.10000000 </v>
   <v>       0.20000000      -0.10000000       0.10000000 </v>
   <v>       0.30000000      -0.10000000       0.10000000 </v>
   <v>       0.40000000      -0.10000000       0.10000000 </v>
   <v>       0.50000000      -0.10000000       0.10000000 </v>
   <v>      -0.40000000      -0.10000000       0.10000000 </v>
   <v>      -0.30000000      -0.10000000       0.10000000 </v>
   <v>      -0.20000000      -0.10000000       0.10000000 </v>
   <v>      -0.10000000      -0.10000000       0.10000000 </v>
   <v>       0.00000000       0.00000000       0.20000000 </v>
   <v>       0.10000000       0.00000000       0.20000000 </v>
   <v>       0.20000000       0.00000000       0.20000000 </v>
   <v>       0.30000000       0.00000000       0.20000000 </v>
   <v>       0.40000000       0.00000000       0.20000000 </v>
   <v>       0.50000000       0.00000000       0.20000000 </v>
   <v>      -0.40000000       0.00000000       0.20000000 </v>
   <v>      -0.30000000       0.00000000       0.20000000 </v>
   <v>      -0.20000000       0.00000000       0.20000000 </v>
   <v>      -0.10000000       0.00000000       0.20000000 </v>
   <v>       0.00000000       0.10000000       0.20000000 </v>
   <v>       0.10000000       0.10000000       0.20000000 </v>
   <v>       0.20000000       0.10000000       0.20000000 </v>
   <v>       0.30000000       0.10000000       0.20000000 </v>
   <v>       0.40000000       0.10000000       0.20000000 </v>
   <v>       0.50000000       0.10000000       0.20000000 </v>
   <v>      -0.40000000       0.10000000       0.20000000 </v>
   <v>      -0.30000000       0.10000000       0.20000000 </v>
   <v>      -0.20000000       0.10000000       0.20000000 </v>
   <v>      -0.10000000       0.10000000       0.20000000 </v>
   <v>       0.00000000       0.20000000       0.20000000 </v>
   <v>       0.10000000       0.20000000       0.20000000 </v>
   <v>       0.20000000       0.20000000       0.20000000 </v>
   <v>       0.30000000       0.20000000       0.20000000 </v>
   <v>       0.40000000       0.20000000       0.20000000 </v>
   <v>       0.50000000       0.20000000       0.20000000 </v>
   <v>      -0.40000000       0.20000000       0.20000000 </v>
   <v>      -0.30000000       0.20000000       0.20000000 </v>
   <v>      -0.20000000       0.20000000       0.20000000 </v>
   <v>      -0.10000000       0.20000000       0.20000000 </v>
   <v>       0.00000000       0.30000000       0.20000000 </v>
   <v>       0.10000000       0.30000000       0.20000000 </v>
   <v>       0.20000000       0.30000000       0.20000000 </v>
   <v>       0.30000000       0.30000000       0.20000000 </v>
   <v>       0.40000000       0.30000000       0.20000000 </v>
   <v>       0.50000000       0.30000000       0.20000000 </v>
   <v>      -0.40000000       0.30000000       0.20000000 </v>
   <v>      -0.30000000       0.30000000       0.20000000 </v>
   <v>      -0.20000000       0.30000000       0.20000000 </v>
   <v>      -0.10000000       0.30000000       0.20000000 </v>
   <v>       0.00000000       0.40000000       0.20000000 </v>
   <v>       0.10000000       0.40000000       0.20000000 </v>
   <v>       0.20000000       0.40000000       0.20000000 </v>
   <v>       0.30000000       0.40000000       0.20000000 </v>
   <v>       0.40000000       0.40000000       0.20000000 </v>
   <v>       0.50000000       0.40000000       0.20000000 </v>
   <v>      -0.40000000       0.40000000       0.20000000 </v>
   <v>      -0.30000000       0.40000000       0.20000000 </v>
   <v>      -0.20000000       0.40000000       0.20000000 </v>
   <v>      -0.10000000       0.40000000       0.20000000 </v>
   <v>       0.00000000       0.50000000       0.20000000 </v>
   <v>       0.10000000       0.50000000       0.20000000 </v>
   <v>       0.20000000       0.50000000       0.20000000 </v>
   <v>       0.30000000       0.50000000       0.20000000 </v>
   <v>       0.40000000       0.50000000       0.20000000 </v>
   <v>       0.50000000       0.50000000       0.20000000 </v>
   <v>      -0.40000000       0.50000000       0.20000000 </v>
   <v>      -0.30000000       0.50000000       0.20000000 </v>
   <v>      -0.20000000       0.50000000       0.20000000 </v>
   <v>      -0.10000000       0.50000000       0.20000000 </v>
   <v>       0.00000000      -0.40000000       0.20000000 </v>
   <v>       0.10000000      -0.40000000       0.20000000 </v>
   <v>       0.20000000      -0.40000000       0.20000000 </v>
   <v>       0.30000000      -0.40000000       0.20000000 </v>
   <v>       0.40000000      -0.40000000       0.20000000 </v>
   <v>       0.50000000      -0.40000000       0.20000000 </v>
   <v>      -0.40000000      -0.40000000       0.20000000 </v>
   <v>      -0.30000000      -0.40000000       0.20000000 </v>
   <v>      -0.20000000      -0.40000000       0.20000000 </v>
   <v>      -0.10000000      -0.40000000       0.20000000 </v>
   <v>       0.00000000      -0.30000000       0.20000000 </v>
   <v>       0.10000000      -0.30000000       0.20000000 </v>
   <v>       0.20000000      -0.30000000       0.20000000 </v>
   <v>       0.30000000      -0.30000000       0.20000000 </v>
   <v>       0.40000000      -0.30000000       0.20000000 </v>
   <v>       0.50000000      -0.30000000       0.20000000 </v>
   <v>      -0.40000000      -0.30000000       0.20000000 </v>
   <v>      -0.30000000      -0.30000000       0.20000000 </v>
   <v>      -0.20000000      -0.30000000       0.20000000 </v>
   <v>      -0.10000000      -0.30000000       0.20000000 </v>
   <v>       0.00000000      -0.20000000       0.20000000 </v>
   <v>       0.10000000      -0.20000000       0.20000000 </v>
   <v>       0.20000000      -0.20000000       0.20000000 </v>
   <v>       0.30000000      -0.20000000       0.20000000 </v>
   <v>       0.40000000      -0.20000000       0.20000000 </v>
   <v>       0.50000000      -0.20000000       0.20000000 </v>
   <v>      -0.40000000      -0.20000000       0.20000000 </v>
   <v>      -0.30000000      -0.20000000       0.20000000 </v>
   <v>      -0.20000000      -0.20000000       0.20000000 </v>
   <v>      -0.10000000      -0.20000000       0.20000000 </v>
   <v>       0.00000000      -0.10000000       0.20000000 </v>
   <v>       0.10000000      -0.10000000       0.20000000 </v>
   <v>       0.20000000      -0.10000000       0.20000000 </v>
   <v>       0.30000000      -0.10000000       0.20000000 </v>
   <v>       0.40000000      -0.10000000       0.20000000 </v>
   <v>       0.50000000      -0.10000000       0.20000000 </v>
   <v>      -0.40000000      -0.10000000       0.20000000 </v>
   <v>      -0.30000000      -0.10000000       0.20000000 </v>
   <v>      -0.20000000      -0.10000000       0.20000000 </v>
   <v>      -0.10000000      -0.10000000       0.20000000 </v>
   <v>       0.00000000       0.00000000       0.30000000 </v>
   <v>       0.10000000       0.00000000       0.30000000 </v>
   <v>       0.20000000       0.00000000       0.30000000 </v>
   <v>       0.30000000       0.00000000       0.30000000 </v>
   <v>       0.40000000       0.00000000       0.30000000 </v>
   <v>       0.50000000       0.00000000       0.30000000 </v>
   <v>      -0.40000000       0.00000000       0.30000000 </v>
   <v>      -0.30000000       0.00000000       0.30000000 </v>
   <v>      -0.20000000       0.00000000       0.30000000 </v>
   <v>      -0.10000000       0.00000000       0.30000000 </v>
   <v>       0.00000000       0.10000000       0.30000000 </v>
   <v>       0.10000000       0.10000000       0.30000000 </v>
   <v>       0.20000000       0.10000000       0.30000000 </v>
   <v>       0.30000000       0.10000000       0.30000000 </v>
   <v>       0.40000000       0.10000000       0.30000000 </v>
   <v>       0.50000000       0.10000000       0.30000000 </v>
   <v>      -0.40000000       0.10000000       0.30000000 </v>
   <v>      -0.30000000       0.10000000       0.30000000 </v>
   <v>      -0.20000000       0.10000000       0.30000000 </v>
   <v>      -0.10000000       0.10000000       0.30000000 </v>
   <v>       0.00000000       0.20000000       0.30000000 </v>
   <v>       0.10000000       0.20000000       0.30000000 </v>
   <v>       0.20000000       0.20000000       0.30000000 </v>
   <v>       0.30000000       0.20000000       0.30000000 </v>
   <v>       0.40000000       0.20000000       0.30000000 </v>
   <v>       0.50000000       0.20000000       0.30000000 </v>
   <v>      -0.40000000       0.20000000       0.30000000 </v>
   <v>      -0.30000000       0.20000000       0.30000000 </v>
   <v>      -0.20000000       0.20000000       0.30000000 </v>
   <v>      -0.10000000       0.20000000       0.30000000 </v>
   <v>       0.00000000       0.30000000       0.30000000 </v>
   <v>       0.10000000       0.30000000       0.30000000 </v>
   <v>       0.20000000       0.30000000       0.30000000 </v>
   <v>       0.30000000       0.30000000       0.30000000 </v>
   <v>       0.40000000       0.30000000       0.30000000 </v>
   <v>       0.50000000       0.30000000       0.30000000 </v>
   <v>      -0.40000000       0.30000000       0.30000000 </v>
   <v>      -0.30000000       0.30000000       0.30000000 </v>
   <v>      -0.20000000       0.30000000       0.30000000 </v>
   <v>      -0.10000000       0.30000000       0.30000000 </v>
   <v>       0.00000000       0.40000000       0.30000000 </v>
   <v>       0.10000000       0.40000000       0.30000000 </v>
   <v>       0.20000000       0.40000000       0.30000000 </v>
   <v>       0.30000000       0.40000000       0.30000000 </v>
   <v>       0.40000000       0.40000000       0.30000000 </v>
   <v>       0.50000000       0.40000000       0.30000000 </v>
   <v>      -0.40000000       0.40000000       0.30000000 </v>
   <v>      -0.30000000       0.40000000       0.30000000 </v>
   <v>      -0.20000000       0.40000000       0.30000000 </v>
   <v>      -0.10000000       0.40000000       0.30000000 </v>
   <v>       0.00000000       0.50000000       0.30000000 </v>
   <v>       0.10000000       0.50000000       0.30000000 </v>
   <v>       0.20000000       0.50000000       0.30000000 </v>
   <v>       0.30000000       0.50000000       0.30000000 </v>
   <v>       0.40000000       0.50000000       0.30000000 </v>
   <v>       0.50000000       0.50000000       0.30000000 </v>
   <v>      -0.40000000       0.50000000       0.30000000 </v>
   <v>      -0.30000000       0.50000000       0.30000000 </v>
   <v>      -0.20000000       0.50000000       0.30000000 </v>
   <v>      -0.10000000       0.50000000       0.30000000 </v>
   <v>       0.00000000      -0.40000000       0.30000000 </v>
   <v>       0.10000000      -0.40000000       0.30000000 </v>
   <v>       0.20000000      -0.40000000       0.30000000 </v>
   <v>       0.30000000      -0.40000000       0.30000000 </v>
   <v>       0.40000000      -0.40000000       0.30000000 </v>
   <v>       0.50000000      -0.40000000       0.30000000 </v>
   <v>      -0.40000000      -0.40000000       0.30000000 </v>
   <v>      -0.30000000      -0.40000000       0.30000000 </v>
   <v>      -0.20000000      -0.40000000       0.30000000 </v>
   <v>      -0.10000000      -0.40000000       0.30000000 </v>
   <v>       0.00000000      -0.30000000       0.30000000 </v>
   <v>       0.10000000      -0.30000000       0.30000000 </v>
   <v>       0.20000000      -0.30000000       0.30000000 </v>
   <v>       0.30000000      -0.30000000       0.30000000 </v>
   <v>       0.40000000      -0.30000000       0.30000000 </v>
   <v>       0.50000000      -0.30000000       0.30000000 </v>
   <v>      -0.40000000      -0.30000000       0.30000000 </v>
   <v>      -0.30000000      -0.30000000       0.30000000 </v>
   <v>      -0.20000000      -0.30000000       0.30000000 </v>
   <v>      -0.10000000      -0.30000000       0.30000000 </v>
   <v>       0.00000000      -0.20000000       0.30000000 </v>
   <v>       0.10000000      -0.20000000       0.30000000 </v>
   <v>       0.20000000      -0.20000000       0.30000000 </v>
   <v>       0.30000000      -0.20000000       0.30000000 </v>
   <v>       0.40000000      -0.20000000       0.30000000 </v>
   <v>       0.50000000      -0.20000000       0.30000000 </v>
   <v>      -0.40000000      -0.20000000       0.30000000 </v>
   <v>      -0.30000000      -0.20000000       0.30000000 </v>
   <v>      -0.20000000      -0.20000000       0.30000000 </v>
   <v>      -0.10000000      -0.20000000       0.30000000 </v>
   <v>       0.00000000      -0.10000000       0.30000000 </v>
   <v>       0.10000000      -0.10000000       0.30000000 </v>
   <v>       0.20000000      -0.10000000       0.30000000 </v>
   <v>       0.30000000      -0.10000000       0.30000000 </v>
   <v>       0.40000000      -0.10000000       0.30000000 </v>
   <v>       0.50000000      -0.10000000       0.30000000 </v>
   <v>      -0.40000000      -0.10000000       0.30000000 </v>
   <v>      -0.30000000      -0.10000000       0.30000000 </v>
   <v>      -0.20000000      -0.10000000       0.30000000 </v>
   <v>      -0.10000000      -0.10000000       0.30000000 </v>
   <v>       0.00000000       0.00000000       0.40000000 </v>
   <v>       0.10000000       0.00000000       0.40000000 </v>
   <v>       0.20000000       0.00000000       0.40000000 </v>
   <v>       0.30000000       0.00000000       0.40000000 </v>
   <v>       0.40000000       0.00000000       0.40000000 </v>
   <v>       0.50000000       0.00000000       0.40000000 </v>
   <v>      -0.40000000       0.00000000       0.40000000 </v>
   <v>      -0.30000000       0.00000000       0.40000000 </v>
   <v>      -0.20000000       0.00000000       0.40000000 </v>
   <v>      -0.10000000       0.00000000       0.40000000 </v>
   <v>       0.00000000       0.10000000       0.40000000 </v>
   <v>       0.10000000       0.10000000       0.40000000 </v>
   <v>       0.20000000       0.10000000       0.40000000 </v>
   <v>       0.30000000       0.10000000       0.40000000 </v>
   <v>       0.40000000       0.10000000       0.40000000 </v>
   <v>       0.50000000       0.10000000       0.40000000 </v>
   <v>      -0.40000000       0.10000000       0.40000000 </v>
   <v>      -0.30000000       0.10000000       0.40000000 </v>
   <v>      -0.20000000       0.10000000       0.40000000 </v>
   <v>      -0.10000000       0.10000000       0.40000000 </v>
   <v>       0.00000000       0.20000000       0.40000000 </v>
   <v>       0.10000000       0.20000000       0.40000000 </v>
   <v>       0.20000000       0.20000000       0.40000000 </v>
   <v>       0.30000000       0.20000000       0.40000000 </v>
   <v>       0.40000000       0.20000000       0.40000000 </v>
   <v>       0.50000000       0.20000000       0.40000000 </v>
   <v>      -0.40000000       0.20000000       0.40000000 </v>
   <v>      -0.30000000       0.20000000       0.40000000 </v>
   <v>      -0.20000000       0.20000000       0.40000000 </v>
   <v>      -0.10000000       0.20000000       0.40000000 </v>
   <v>       0.00000000       0.30000000       0.40000000 </v>
   <v>       0.10000000       0.30000000       0.40000000 </v>
   <v>       0.20000000       0.30000000       0.40000000 </v>
   <v>       0.30000000       0.30000000       0.40000000 </v>
   <v>       0.40000000       0.30000000       0.40000000 </v>
   <v>       0.50000000       0.30000000       0.40000000 </v>
   <v>      -0.40000000       0.30000000       0.40000000 </v>
   <v>      -0.30000000       0.30000000       0.40000000 </v>
   <v>      -0.20000000       0.30000000       0.40000000 </v>
   <v>      -0.10000000       0.30000000       0.40000000 </v>
   <v>       0.00000000       0.40000000       0.40000000 </v>
   <v>       0.10000000       0.40000000       0.40000000 </v>
   <v>       0.20000000       0.40000000       0.40000000 </v>
   <v>       0.30000000       0.40000000       0.40000000 </v>
   <v>       0.40000000       0.40000000       0.40000000 </v>
   <v>       0.50000000       0.40000000       0.40000000 </v>
   <v>      -0.40000000       0.40000000       0.40000000 </v>
   <v>      -0.30000000       0.40000000       0.40000000 </v>
   <v>      -0.20000000       0.40000000       0.40000000 </v>
   <v>      -0.10000000       0.40000000       0.40000000 </v>
   <v>       0.00000000       0.50000000       0.40000000 </v>
   <v>       0.10000000       0.50000000       0.40000000 </v>
   <v>       0.20000000       0.50000000       0.40000000 </v>
   <v>       0.30000000       0.50000000       0.40000000 </v>
   <v>       0.40000000       0.50000000       0.40000000 </v>
   <v>       0.50000000       0.50000000       0.40000000 </v>
   <v>      -0.40000000       0.50000000       0.40000000 </v>
   <v>      -0.30000000       0.50000000       0.40000000 </v>
   <v>      -0.20000000       0.50000000       0.40000000 </v>
   <v>      -0.10000000       0.50000000       0.40000000 </v>
   <v>       0.00000000      -0.40000000       0.40000000 </v>
   <v>       0.10000000      -0.40000000       0.40000000 </v>
   <v>       0.20000000      -0.40000000       0.40000000 </v>
   <v>       0.30000000      -0.40000000       0.40000000 </v>
   <v>       0.40000000      -0.40000000       0.40000000 </v>
   <v>       0.50000000      -0.40000000       0.40000000 </v>
   <v>      -0.40000000      -0.40000000       0.40000000 </v>
   <v>      -0.30000000      -0.40000000       0.40000000 </v>
   <v>      -0.20000000      -0.40000000       0.40000000 </v>
   <v>      -0.10000000      -0.40000000       0.40000000 </v>
   <v>       0.00000000      -0.30000000       0.40000000 </v>
   <v>       0.10000000      -0.30000000       0.40000000 </v>
   <v>       0.20000000      -0.30000000       0.40000000 </v>
   <v>       0.30000000      -0.30000000       0.40000000 </v>
   <v>       0.40000000      -0.30000000       0.40000000 </v>
   <v>       0.50000000      -0.30000000       0.40000000 </v>
   <v>      -0.40000000      -0.30000000       0.40000000 </v>
   <v>      -0.30000000      -0.30000000       0.40000000 </v>
   <v>      -0.20000000      -0.30000000       0.40000000 </v>
   <v>      -0.10000000      -0.30000000       0.40000000 </v>
   <v>       0.00000000      -0.20000000       0.40000000 </v>
   <v>       0.10000000      -0.20000000       0.40000000 </v>
   <v>       0.20000000      -0.20000000       0.40000000 </v>
   <v>       0.30000000      -0.20000000       0.40000000 </v>
   <v>       0.40000000      -0.20000000       0.40000000 </v>
   <v>       0.50000000      -0.20000000       0.40000000 </v>
   <v>      -0.40000000      -0.20000000       0.40000000 </v>
   <v>      -0.30000000      -0.20000000       0.40000000 </v>
   <v>      -0.20000000      -0.20000000       0.40000000 </v>
   <v>      -0.10000000      -0.20000000       0.40000000 </v>
   <v>       0.00000000      -0.10000000       0.40000000 </v>
   <v>       0.10000000      -0.10000000       0.40000000 </v>
   <v>       0.20000000      -0.10000000       0.40000000 </v>
   <v>       0.30000000      -0.10000000       0.40000000 </v>
   <v>       0.40000000      -0.10000000       0.40000000 </v>
   <v>       0.50000000      -0.10000000       0.40000000 </v>
   <v>      -0.40000000      -0.10000000       0.40000000 </v>
   <v>      -0.30000000      -0.10000000       0.40000000 </v>
   <v>      -0.20000000      -0.10000000       0.40000000 </v>
   <v>      -0.10000000      -0.10000000       0.40000000 </v>
   <v>       0.00000000       0.00000000       0.50000000 </v>
   <v>       0.10000000       0.00000000       0.50000000 </v>
   <v>       0.20000000       0.00000000       0.50000000 </v>
   <v>       0.30000000       0.00000000       0.50000000 </v>
   <v>       0.40000000       0.00000000       0.50000000 </v>
   <v>       0.50000000       0.00000000       0.50000000 </v>
   <v>       0.00000000       0.10000000       0.50000000 </v>
   <v>       0.10000000       0.10000000       0.50000000 </v>
   <v>       0.20000000       0.10000000       0.50000000 </v>
   <v>       0.30000000       0.10000000       0.50000000 </v>
   <v>       0.40000000       0.10000000       0.50000000 </v>
   <v>       0.50000000       0.10000000       0.50000000 </v>
   <v>      -0.40000000       0.10000000       0.50000000 </v>
   <v>      -0.30000000       0.10000000       0.50000000 </v>
   <v>      -0.20000000       0.10000000       0.50000000 </v>
   <v>      -0.10000000       0.10000000       0.50000000 </v>
   <v>       0.00000000       0.20000000       0.50000000 </v>
   <v>       0.10000000       0.20000000       0.50000000 </v>
   <v>       0.20000000       0.20000000       0.50000000 </v>
   <v>       0.30000000       0.20000000       0.50000000 </v>
   <v>       0.40000000       0.20000000       0.50000000 </v>
   <v>       0.50000000       0.20000000       0.50000000 </v>
   <v>      -0.40000000       0.20000000       0.50000000 </v>
   <v>      -0.30000000       0.20000000       0.50000000 </v>
   <v>      -0.20000000       0.20000000       0.50000000 </v>
   <v>      -0.10000000       0.20000000       0.50000000 </v>
   <v>       0.00000000       0.30000000       0.50000000 </v>
   <v>       0.10000000       0.30000000       0.50000000 </v>
   <v>       0.20000000       0.30000000       0.50000000 </v>
   <v>       0.30000000       0.30000000       0.50000000 </v>
   <v>       0.40000000       0.30000000       0.50000000 </v>
   <v>       0.50000000       0.30000000       0.50000000 </v>
   <v>      -0.40000000       0.30000000       0.50000000 </v>
   <v>      -0.30000000       0.30000000       0.50000000 </v>
   <v>      -0.20000000       0.30000000       0.50000000 </v>
   <v>      -0.10000000       0.30000000       0.50000000 </v>
   <v>       0.00000000       0.40000000       0.50000000 </v>
   <v>       0.10000000       0.40000000       0.50000000 </v>
   <v>       0.20000000       0.40000000       0.50000000 </v>
   <v>       0.30000000       0.40000000       0.50000000 </v>
   <v>       0.40000000       0.40000000       0.50000000 </v>
   <v>       0.50000000       0.40000000       0.50000000 </v>
   <v>      -0.40000000       0.40000000       0.50000000 </v>
   <v>      -0.30000000       0.40000000       0.50000000 </v>
   <v>      -0.20000000       0.40000000       0.50000000 </v>
   <v>      -0.10000000       0.40000000       0.50000000 </v>
   <v>       0.00000000       0.50000000       0.50000000 </v>
   <v>       0.10000000       0.50000000       0.50000000 </v>
   <v>       0.20000000       0.50000000       0.50000000 </v>
   <v>       0.30000000       0.50000000       0.50000000 </v>
   <v>       0.40000000       0.50000000       0.50000000 </v>
   <v>       0.50000000       0.50000000       0.50000000 </v>
  </varray>
  <varray name="weights" >
   <v>       0.00100000 </v>
   <v>       0.00200000 </v>
   <v>       0.00200000 </v>
   <v>       0.00200000 </v>
   <v>       0.00200000 </v>
   <v>       0.00100000 </v>
   <v>       0.00200000 </v>
   <v>       0.00200000 </v>
   <v>       0.00200000 </v>
   <v>       0.00200000 </v>
   <v>       0.00200000 </v>
   <v>       0.00200000 </v>
   <v>       0.00200000 </v>
   <v>       0.00200000 </v>
   <v>       0.00200000 </v>
   <v>       0.00200000 </v>
   <v>       0.00200000 </v>
   <v>       0.00200000 </v>
   <v>       0.00200000 </v>
   <v>       0.00200000 </v>
   <v>       0.00200000 </v>
   <v>       0.00200000 </v>
   <v>       0.00200000 </v>
   <v>       0.00200000 </v>
   <v>       0.00200000 </v>
   <v>       0.00200000 </v>
   <v>       0.00200000 </v>
   <v>       0.00200000 </v>
   <v>       0.00200000 </v>
   <v>       0.00200000 </v>
   <v>       0.00200000 </v>
   <v>       0.00200000 </v>
   <v>       0.00200000 </v>
   <v>       0.00200000 </v>
   <v>       0.00200000 </v>
   <v>       0.00200000 </v>
   <v>       0.00200000 </v>
   <v>       0.00200000 </v>
   <v>       0.00200000 </v>
   <v>       0.00200000 </v>
   <v>       0.00200000 </v>
   <v>       0.00200000 </v>
   <v>       0.00200000 </v>
   <v>       0.00200000 </v>
   <v>       0.00200000 </v>
   <v>       0.00200000 </v>
   <v>       0.00100000 </v>
   <v>       0.00200000 </v>
   <v>       0.00200000 </v>
   <v>       0.00200000 </v>
   <v>       0.00200000 </v>
   <v>       0.00100000 </v>
   <v>       0.00200000 </v>
   <v>       0.00200000 </v>
   <v>       0.00200000 </v>
   <v>       0.00200000 </v>
   <v>       0.00200000 </v>
   <v>       0.00200000 </v>
   <v>       0.00200000 </v>
   <v>       0.00200000 </v>
   <v>       0.00200000 </v>
   <v>       0.00200000 </v>
   <v>       0.00200000 </v>
   <v>       0.00200000 </v>
   <v>       0.00200000 </v>
   <v>       0.00200000 </v>
   <v>       0.00200000 </v>
   <v>       0.00200000 </v>
   <v>       0.00200000 </v>
   <v>       0.00200000 </v>
   <v>       0.00200000 </v>
   <v>       0.00200000 </v>
   <v>       0.00200000 </v>
   <v>       0.00200000 </v>
   <v>       0.00200000 </v>
   <v>       0.00200000 </v>
   <v>       0.00200000 </v>
   <v>       0.00200000 </v>
   <v>       0.00200000 </v>
   <v>       0.00200000 </v>
   <v>       0.00200000 </v>
   <v>       0.00200000 </v>
   <v>       0.00200000 </v>
   <v>       0.00200000 </v>
   <v>       0.00200000 </v>
   <v>       0.00200000 </v>
   <v>       0.00200000 </v>
   <v>       0.00200000 </v>
   <v>       0.00200000 </v>
   <v>       0.00200000 </v>
   <v>       0.00200000 </v>
   <v>       0.00200000 </v>
   <v>       0.00200000 </v>
   <v>       0.00200000 </v>
   <v>       0.00200000 </v>
   <v>       0.00200000 </v>
   <v>       0.00200000 </v>
   <v>       0.00200000 </v>
   <v>       0.00200000 </v>
   <v>       0.00200000 </v>
   <v>       0.00200000 </v>
   <v>       0.00200000 </v>
   <v>       0.00200000 </v>
   <v>       0.00200000 </v>
   <v>       0.00200000 </v>
   <v>       0.00200000 </v>
   <v>       0.00200000 </v>
   <v>       0.00200000 </v>
   <v>       0.00200000 </v>
   <v>       0.00200000 </v>
   <v>       0.00200000 </v>
   <v>       0.00200000 </v>
   <v>       0.00200000 </v>
   <v>       0.00200000 </v>
   <v>       0.00200000 </v>
   <v>       0.00200000 </v>
   <v>       0.00200000 </v>
   <v>       0.00200000 </v>
   <v>       0.00200000 </v>
   <v>       0.00200000 </v>
   <v>       0.00200000 </v>
   <v>       0.00200000 </v>
   <v>       0.00200000 </v>
   <v>       0.00200000 </v>
   <v>       0.00200000 </v>
   <v>       0.00200000 </v>
   <v>       0.00200000 </v>
   <v>       0.00200000 </v>
   <v>       0.00200000 </v>
   <v>       0.00200000 </v>
   <v>       0.00200000 </v>
   <v>       0.00200000 </v>
   <v>       0.00200000 </v>
   <v>       0.00200000 </v>
   <v>       0.00200000 </v>
   <v>       0.00200000 </v>
   <v>       0.00200000 </v>
   <v>       0.00200000 </v>
   <v>       0.00200000 </v>
   <v>       0.00200000 </v>
   <v>       0.00200000 </v>
   <v>       0.00200000 </v>
   <v>       0.00200000 </v>
   <v>       0.00200000 </v>
   <v>       0.00200000 </v>
   <v>       0.00200000 </v>
   <v>       0.00200000 </v>
   <v>       0.00200000 </v>
   <v>       0.00200000 </v>
   <v>       0.00200000 </v>
   <v>       0.00200000 </v>
   <v>       0.00200000 </v>
   <v>       0.00200000 </v>
   <v>       0.00200000 </v>
   <v>       0.00200000 </v>
   <v>       0.00200000 </v>
   <v>       0.00200000 </v>
   <v>       0.00200000 </v>
   <v>       0.00200000 </v>
   <v>       0.00200000 </v>
   <v>       0.00200000 </v>
   <v>       0.00200000 </v>
   <v>       0.00200000 </v>
   <v>       0.00200000 </v>
   <v>       0.00200000 </v>
   <v>       0.00200000 </v>
   <v>       0.00200000 </v>
   <v>       0.00200000 </v>
   <v>       0.00200000 </v>
   <v>       0.00200000 </v>
   <v>       0.00200000 </v>
   <v>       0.00200000 </v>
   <v>       0.00200000 </v>
   <v>       0.00200000 </v>
   <v>       0.00200000 </v>
   <v>       0.00200000 </v>
   <v>       0.00200000 </v>
   <v>       0.00200000 </v>
   <v>       0.00200000 </v>
   <v>       0.00200000 </v>
   <v>       0.00200000 </v>
   <v>       0.00200000 </v>
   <v>       0.00200000 </v>
   <v>       0.00200000 </v>
   <v>       0.00200000 </v>
   <v>       0.00200000 </v>
   <v>       0.00200000 </v>
   <v>       0.00200000 </v>
   <v>       0.00200000 </v>
   <v>       0.00200000 </v>
   <v>       0.00200000 </v>
   <v>       0.00200000 </v>
   <v>       0.00200000 </v>
   <v>       0.00200000 </v>
   <v>       0.00200000 </v>
   <v>       0.00200000 </v>
   <v>       0.00200000 </v>
   <v>       0.00200000 </v>
   <v>       0.00200000 </v>
   <v>       0.00200000 </v>
   <v>       0.00200000 </v>
   <v>       0.00200000 </v>
   <v>       0.00200000 </v>
   <v>       0.00200000 </v>
   <v>       0.00200000 </v>
   <v>       0.00200000 </v>
   <v>       0.00200000 </v>
   <v>       0.00200000 </v>
   <v>       0.00200000 </v>
   <v>       0.00200000 </v>
   <v>       0.00200000 </v>
   <v>       0.00200000 </v>
   <v>       0.00200000 </v>
   <v>       0.00200000 </v>
   <v>       0.00200000 </v>
   <v>       0.00200000 </v>
   <v>       0.00200000 </v>
   <v>       0.00200000 </v>
   <v>       0.00200000 </v>
   <v>       0.00200000 </v>
   <v>       0.00200000 </v>
   <v>       0.00200000 </v>
   <v>       0.00200000 </v>
   <v>       0.00200000 </v>
   <v>       0.00200000 </v>
   <v>       0.00200000 </v>
   <v>       0.00200000 </v>
   <v>       0.00200000 </v>
   <v>       0.00200000 </v>
   <v>       0.00200000 </v>
   <v>       0.00200000 </v>
   <v>       0.00200000 </v>
   <v>       0.00200000 </v>
   <v>       0.00200000 </v>
   <v>       0.00200000 </v>
   <v>       0.00200000 </v>
   <v>       0.00200000 </v>
   <v>       0.00200000 </v>
   <v>       0.00200000 </v>
   <v>       0.00200000 </v>
   <v>       0.00200000 </v>
   <v>       0.00200000 </v>
   <v>       0.00200000 </v>
   <v>       0.00200000 </v>
   <v>       0.00200000 </v>
   <v>       0.00200000 </v>
   <v>       0.00200000 </v>
   <v>       0.00200000 </v>
   <v>       0.00200000 </v>
   <v>       0.00200000 </v>
   <v>       0.00200000 </v>
   <v>       0.00200000 </v>
   <v>       0.00200000 </v>
   <v>       0.00200000 </v>
   <v>       0.00200000 </v>
   <v>       0.00200000 </v>
   <v>       0.00200000 </v>
   <v>       0.00200000 </v>
   <v>       0.00200000 </v>
   <v>       0.00200000 </v>
   <v>       0.00200000 </v>
   <v>       0.00200000 </v>
   <v>       0.00200000 </v>
   <v>       0.00200000 </v>
   <v>       0.00200000 </v>
   <v>       0.00200000 </v>
   <v>       0.00200000 </v>
   <v>       0.00200000 </v>
   <v>       0.00200000 </v>
   <v>       0.00200000 </v>
   <v>       0.00200000 </v>
   <v>       0.00200000 </v>
   <v>       0.00200000 </v>
   <v>       0.00200000 </v>
   <v>       0.00200000 </v>
   <v>       0.00200000 </v>
   <v>       0.00200000 </v>
   <v>       0.00200000 </v>
   <v>       0.00200000 </v>
   <v>       0.00200000 </v>
   <v>       0.00200000 </v>
   <v>       0.00200000 </v>
   <v>       0.00200000 </v>
   <v>       0.00200000 </v>
   <v>       0.00200000 </v>
   <v>       0.00200000 </v>
   <v>       0.00200000 </v>
   <v>       0.00200000 </v>
   <v>       0.00200000 </v>
   <v>       0.00200000 </v>
   <v>       0.00200000 </v>
   <v>       0.00200000 </v>
   <v>       0.00200000 </v>
   <v>       0.00200000 </v>
   <v>       0.00200000 </v>
   <v>       0.00200000 </v>
   <v>       0.00200000 </v>
   <v>       0.00200000 </v>
   <v>       0.00200000 </v>
   <v>       0.00200000 </v>
   <v>       0.00200000 </v>
   <v>       0.00200000 </v>
   <v>       0.00200000 </v>
   <v>       0.00200000 </v>
   <v>       0.00200000 </v>
   <v>       0.00200000 </v>
   <v>       0.00200000 </v>
   <v>       0.00200000 </v>
   <v>       0.00200000 </v>
   <v>       0.00200000 </v>
   <v>       0.00200000 </v>
   <v>       0.00200000 </v>
   <v>       0.00200000 </v>
   <v>       0.00200000 </v>
   <v>       0.00200000 </v>
   <v>       0.00200000 </v>
   <v>       0.00200000 </v>
   <v>       0.00200000 </v>
   <v>       0.00200000 </v>
   <v>       0.00200000 </v>
   <v>       0.00200000 </v>
   <v>       0.00200000 </v>
   <v>       0.00200000 </v>
   <v>       0.00200000 </v>
   <v>       0.00200000 </v>
   <v>       0.00200000 </v>
   <v>       0.00200000 </v>
   <v>       0.00200000 </v>
   <v>       0.00200000 </v>
   <v>       0.00200000 </v>
   <v>       0.00200000 </v>
   <v>       0.00200000 </v>
   <v>       0.00200000 </v>
   <v>       0.00200000 </v>
   <v>       0.00200000 </v>
   <v>       0.00200000 </v>
   <v>       0.00200000 </v>
   <v>       0.00200000 </v>
   <v>       0.00200000 </v>
   <v>       0.00200000 </v>
   <v>       0.00200000 </v>
   <v>       0.00200000 </v>
   <v>       0.00200000 </v>
   <v>       0.00200000 </v>
   <v>       0.00200000 </v>
   <v>       0.00200000 </v>
   <v>       0.00200000 </v>
   <v>       0.00200000 </v>
   <v>       0.00200000 </v>
   <v>       0.00200000 </v>
   <v>       0.00200000 </v>
   <v>       0.00200000 </v>
   <v>       0.00200000 </v>
   <v>       0.00200000 </v>
   <v>       0.00200000 </v>
   <v>       0.00200000 </v>
   <v>       0.00200000 </v>
   <v>       0.00200000 </v>
   <v>       0.00200000 </v>
   <v>       0.00200000 </v>
   <v>       0.00200000 </v>
   <v>       0.00200000 </v>
   <v>       0.00200000 </v>
   <v>       0.00200000 </v>
   <v>       0.00200000 </v>
   <v>       0.00200000 </v>
   <v>       0.00200000 </v>
   <v>       0.00200000 </v>
   <v>       0.00200000 </v>
   <v>       0.00200000 </v>
   <v>       0.00200000 </v>
   <v>       0.00200000 </v>
   <v>       0.00200000 </v>
   <v>       0.00200000 </v>
   <v>       0.00200000 </v>
   <v>       0.00200000 </v>
   <v>       0.00200000 </v>
   <v>       0.00200000 </v>
   <v>       0.00200000 </v>
   <v>       0.00200000 </v>
   <v>       0.00200000 </v>
   <v>       0.00200000 </v>
   <v>       0.00200000 </v>
   <v>       0.00200000 </v>
   <v>       0.00200000 </v>
   <v>       0.00200000 </v>
   <v>       0.00200000 </v>
   <v>       0.00200000 </v>
   <v>       0.00200000 </v>
   <v>       0.00200000 </v>
   <v>       0.00200000 </v>
   <v>       0.00200000 </v>
   <v>       0.00200000 </v>
   <v>       0.00200000 </v>
   <v>       0.00200000 </v>
   <v>       0.00200000 </v>
   <v>       0.00200000 </v>
   <v>       0.00200000 </v>
   <v>       0.00200000 </v>
   <v>       0.00200000 </v>
   <v>       0.00200000 </v>
   <v>       0.00200000 </v>
   <v>       0.00200000 </v>
   <v>       0.00200000 </v>
   <v>       0.00200000 </v>
   <v>       0.00200000 </v>
   <v>       0.00200000 </v>
   <v>       0.00200000 </v>
   <v>       0.00200000 </v>
   <v>       0.00200000 </v>
   <v>       0.00200000 </v>
   <v>       0.00200000 </v>
   <v>       0.00200000 </v>
   <v>       0.00200000 </v>
   <v>       0.00200000 </v>
   <v>       0.00200000 </v>
   <v>       0.00200000 </v>
   <v>       0.00200000 </v>
   <v>       0.00200000 </v>
   <v>       0.00200000 </v>
   <v>       0.00200000 </v>
   <v>       0.00200000 </v>
   <v>       0.00200000 </v>
   <v>       0.00200000 </v>
   <v>       0.00200000 </v>
   <v>       0.00200000 </v>
   <v>       0.00200000 </v>
   <v>       0.00200000 </v>
   <v>       0.00200000 </v>
   <v>       0.00200000 </v>
   <v>       0.00200000 </v>
   <v>       0.00200000 </v>
   <v>       0.00200000 </v>
   <v>       0.00200000 </v>
   <v>       0.00200000 </v>
   <v>       0.00200000 </v>
   <v>       0.00200000 </v>
   <v>       0.00200000 </v>
   <v>       0.00200000 </v>
   <v>       0.00200000 </v>
   <v>       0.00200000 </v>
   <v>       0.00200000 </v>
   <v>       0.00200000 </v>
   <v>       0.00200000 </v>
   <v>       0.00200000 </v>
   <v>       0.00200000 </v>
   <v>       0.00200000 </v>
   <v>       0.00200000 </v>
   <v>       0.00200000 </v>
   <v>       0.00200000 </v>
   <v>       0.00200000 </v>
   <v>       0.00200000 </v>
   <v>       0.00100000 </v>
   <v>       0.00200000 </v>
   <v>       0.00200000 </v>
   <v>       0.00200000 </v>
   <v>       0.00200000 </v>
   <v>       0.00100000 </v>
   <v>       0.00200000 </v>
   <v>       0.00200000 </v>
   <v>       0.00200000 </v>
   <v>       0.00200000 </v>
   <v>       0.00200000 </v>
   <v>       0.00200000 </v>
   <v>       0.00200000 </v>
   <v>       0.00200000 </v>
   <v>       0.00200000 </v>
   <v>       0.00200000 </v>
   <v>       0.00200000 </v>
   <v>       0.00200000 </v>
   <v>       0.00200000 </v>
   <v>       0.00200000 </v>
   <v>       0.00200000 </v>
   <v>       0.00200000 </v>
   <v>       0.00200000 </v>
   <v>       0.00200000 </v>
   <v>       0.00200000 </v>
   <v>       0.00200000 </v>
   <v>       0.00200000 </v>
   <v>       0.00200000 </v>
   <v>       0.00200000 </v>
   <v>       0.00200000 </v>
   <v>       0.00200000 </v>
   <v>       0.00200000 </v>
   <v>       0.00200000 </v>
   <v>       0.00200000 </v>
   <v>       0.00200000 </v>
   <v>       0.00200000 </v>
   <v>       0.00200000 </v>
   <v>       0.00200000 </v>
   <v>       0.00200000 </v>
   <v>       0.00200000 </v>
   <v>       0.00200000 </v>
   <v>       0.00200000 </v>
   <v>       0.00200000 </v>
   <v>       0.00200000 </v>
   <v>       0.00200000 </v>
   <v>       0.00200000 </v>
   <v>       0.00100000 </v>
   <v>       0.00200000 </v>
   <v>       0.00200000 </v>
   <v>       0.00200000 </v>
   <v>       0.00200000 </v>
   <v>       0.00100000 </v>
  </varray>
 </kpoints>
 <parameters>
  <separator name="general" >
   <i type="string" name="SYSTEM">ice</i>
   <i type="logical" name="LCOMPAT"> F  </i>
  </separator>
  <separator name="electronic" >
   <i type="string" name="PREC">normal</i>
   <i name="ENMAX">    400.00000000</i>
   <i name="ENAUG">    605.39200000</i>
   <i name="EDIFF">      0.00000100</i>
   <i type="int" name="IALGO">    48</i>
   <i type="int" name="IWAVPR">    10</i>
   <i type="int" name="NBANDS">   172</i>
   <i name="NELECT">    248.00000000</i>
   <i type="int" name="TURBO">     0</i>
   <i type="int" name="IRESTART">     0</i>
   <i type="int" name="NREBOOT">     0</i>
   <i type="int" name="NMIN">     0</i>
   <i name="EREF">      0.00000000</i>
   <separator name="electronic smearing" >
    <i type="int" name="ISMEAR">    -1</i>
    <i name="SIGMA">      0.05000000</i>
    <i name="KSPACING">      0.50000000</i>
    <i type="logical" name="KGAMMA"> T  </i>
   </separator>
   <separator name="electronic projectors" >
    <i type="logical" name="LREAL"> T  </i>
    <v name="ROPT">     -0.00050000     -0.00050000</v>
    <i type="int" name="LMAXPAW">  -100</i>
    <i type="int" name="LMAXMIX">     2</i>
    <i type="logical" name="NLSPLINE"> F  </i>
   </separator>
   <separator name="electronic startup" >
    <i type="int" name="ISTART">     0</i>
    <i type="int" name="ICHARG">     1</i>
    <i type="int" name="INIWAV">     1</i>
   </separator>
   <separator name="electronic spin" >
    <i type="int" name="ISPIN">     1</i>
    <i type="logical" name="LNONCOLLINEAR"> F  </i>
    <v name="MAGMOM">      1.00000000      1.00000000      1.00000000      1.00000000      1.00000000      1.00000000      1.00000000      1.00000000      1.00000000      1.00000000      1.00000000      1.00000000      1.00000000      1.00000000      1.00000000      1.00000000      1.00000000      1.00000000      1.00000000      1.00000000
      1.00000000      1.00000000      1.00000000      1.00000000      1.00000000      1.00000000      1.00000000      1.00000000      1.00000000      1.00000000      1.00000000      1.00000000      1.00000000      1.00000000      1.00000000      1.00000000      1.00000000      1.00000000      1.00000000      1.00000000
      1.00000000      1.00000000      1.00000000      1.00000000      1.00000000      1.00000000      1.00000000      1.00000000      1.00000000      1.00000000      1.00000000      1.00000000      1.00000000      1.00000000      1.00000000      1.00000000      1.00000000      1.00000000      1.00000000      1.00000000
      1.00000000      1.00000000      1.00000000      1.00000000      1.00000000      1.00000000      1.00000000      1.00000000      1.00000000      1.00000000      1.00000000      1.00000000      1.00000000      1.00000000      1.00000000      1.00000000      1.00000000      1.00000000      1.00000000      1.00000000
      1.00000000      1.00000000      1.00000000      1.00000000      1.00000000      1.00000000      1.00000000      1.00000000      1.00000000      1.00000000      1.00000000      1.00000000      1.00000000</v>
    <i name="NUPDOWN">     -1.00000000</i>
    <i type="logical" name="LSORBIT"> F  </i>
    <v name="SAXIS">      0.00000000      0.00000000      1.00000000</v>
    <i type="logical" name="LSPIRAL"> F  </i>
    <v name="QSPIRAL">      0.00000000      0.00000000      0.00000000</v>
    <i type="logical" name="LZEROZ"> F  </i>
   </separator>
   <separator name="electronic exchange-correlation" >
    <i type="logical" name="LASPH"> F  </i>
    <i type="logical" name="LMETAGGA"> F  </i>
   </separator>
   <separator name="electronic convergence" >
    <i type="int" name="NELM">   500</i>
    <i type="int" name="NELMDL">     0</i>
    <i type="int" name="NELMIN">     4</i>
    <i name="ENINI">    400.00000000</i>
    <separator name="electronic convergence detail" >
     <i type="logical" name="LDIAG"> T  </i>
     <i type="logical" name="LSUBROT"> F  </i>
     <i name="WEIMIN">      0.00000000</i>
     <i name="EBREAK">      0.00000000</i>
     <i name="DEPER">      0.30000000</i>
     <i type="int" name="NRMM">     4</i>
     <i name="TIME">      0.40000000</i>
    </separator>
   </separator>
   <separator name="electronic mixer" >
    <i name="AMIX">      0.40000000</i>
    <i name="BMIX">      1.00000000</i>
    <i name="AMIN">      0.10000000</i>
    <i name="AMIX_MAG">      1.60000000</i>
    <i name="BMIX_MAG">      1.00000000</i>
    <separator name="electronic mixer details" >
     <i type="int" name="IMIX">     4</i>
     <i type="logical" name="MIXFIRST"> F  </i>
     <i type="int" name="MAXMIX">    40</i>
     <i name="WC">    100.00000000</i>
     <i type="int" name="INIMIX">     1</i>
     <i type="int" name="MIXPRE">     1</i>
     <i type="int" name="MREMOVE">     5</i>
    </separator>
   </separator>
   <separator name="electronic dipolcorrection" >
    <i type="logical" name="LDIPOL"> F  </i>
    <i type="logical" name="LMONO"> F  </i>
    <i type="int" name="IDIPOL">     0</i>
    <i name="EPSILON">      1.00000000</i>
    <v name="DIPOL">   -100.00000000   -100.00000000   -100.00000000</v>
    <i name="EFIELD">      0.00000000</i>
   </separator>
  </separator>
  <separator name="grids" >
   <i type="int" name="NGX">    48</i>
   <i type="int" name="NGY">    48</i>
   <i type="int" name="NGZ">    48</i>
   <i type="int" name="NGXF">    96</i>
   <i type="int" name="NGYF">    96</i>
   <i type="int" name="NGZF">    96</i>
   <i type="logical" name="ADDGRID"> F  </i>
  </separator>
  <separator name="ionic" >
   <i type="int" name="NSW">     0</i>
   <i type="int" name="IBRION">    -1</i>
   <i type="int" name="MDALGO">     0</i>
   <i type="int" name="ISIF">     2</i>
   <i name="PSTRESS">      0.00000000</i>
   <i name="EDIFFG">      0.00001000</i>
   <i type="int" name="NFREE">     0</i>
   <i name="POTIM">      0.50000000</i>
   <i name="SMASS">     -3.00000000</i>
   <i name="SCALEE">      1.00000000</i>
  </separator>
  <separator name="ionic md" >
   <i name="TEBEG">      0.00010000</i>
   <i name="TEEND">      0.00010000</i>
   <i type="int" name="NBLOCK">     1</i>
   <i type="int" name="KBLOCK">     1</i>
   <i type="int" name="NPACO">   256</i>
   <i name="APACO">     16.00000000</i>
  </separator>
  <separator name="symmetry" >
   <i type="int" name="ISYM">     2</i>
   <i name="SYMPREC">      0.00001000</i>
  </separator>
  <separator name="dos" >
   <i type="int" name="LORBIT">     0</i>
   <v name="RWIGS">     -1.00000000     -1.00000000</v>
   <i type="int" name="NEDOS">   301</i>
   <i name="EMIN">     10.00000000</i>
   <i name="EMAX">    -10.00000000</i>
   <i name="EFERMI">      0.00000000</i>
  </separator>
  <separator name="writing" >
   <i type="int" name="NWRITE">     0</i>
   <i type="logical" name="LWAVE"> F  </i>
   <i type="logical" name="LDOWNSAMPLE"> F  </i>
   <i type="logical" name="LCHARG"> F  </i>
   <i type="logical" name="LPARD"> F  </i>
   <i type="logical" name="LVTOT"> F  </i>
   <i type="logical" name="LVHAR"> T  </i>
   <i type="logical" name="LELF"> F  </i>
   <i type="logical" name="LOPTICS"> F  </i>
   <v name="STM">      0.00000000      0.00000000      0.00000000      0.00000000      0.00000000      0.00000000      0.00000000</v>
  </separator>
  <separator name="performance" >
   <i type="int" name="NPAR">     2</i>
   <i type="int" name="NSIM">     4</i>
   <i type="int" name="NBLK">    -1</i>
   <i type="logical" name="LPLANE"> T  </i>
   <i type="logical" name="LSCALAPACK"> T  </i>
   <i type="logical" name="LSCAAWARE"> F  </i>
   <i type="logical" name="LSCALU"> F  </i>
   <i type="logical" name="LASYNC"> F  </i>
   <i type="logical" name="LORBITALREAL"> F  </i>
  </separator>
  <separator name="miscellaneous" >
   <i type="int" name="IDIOT">     3</i>
   <i type="int" name="ISPECIAL">     0</i>
   <i type="logical" name="LMUSIC"> F  </i>
   <v name="POMASS">     16.00000000      1.00000000</v>
   <v name="DARWINR">      0.00000000      0.00000000</v>
   <v name="DARWINV">      1.00000000      1.00000000</v>
   <i type="logical" name="LCORR"> T  </i>
  </separator>
  <i type="logical" name="GGA_COMPAT"> T  </i>
  <i type="logical" name="LBERRY"> F  </i>
  <i type="int" name="ICORELEVEL">     0</i>
  <i type="logical" name="LDAU"> F  </i>
  <i type="int" name="I_CONSTRAINED_M">     0</i>
  <separator name="electronic exchange-correlation" >
   <i type="string" name="GGA">--</i>
   <i type="int" name="VOSKOWN">     0</i>
   <i type="logical" name="LHFCALC"> F  </i>
   <i type="string" name="PRECFOCK"></i>
   <i type="logical" name="LSYMGRAD"> F  </i>
   <i type="logical" name="LHFONE"> F  </i>
   <i type="logical" name="LRHFCALC"> F  </i>
   <i type="logical" name="LTHOMAS"> F  </i>
   <i type="logical" name="LMODELHF"> F  </i>
   <i name="ENCUT4O">     -1.00000000</i>
   <i type="int" name="EXXOEP">     0</i>
   <i type="int" name="FOURORBIT">     0</i>
   <i name="AEXX">      0.00000000</i>
   <i name="HFALPHA">      0.00000000</i>
   <i name="MCALPHA">      0.00000000</i>
   <i name="ALDAX">      1.00000000</i>
   <i name="AGGAX">      1.00000000</i>
   <i name="ALDAC">      1.00000000</i>
   <i name="AGGAC">      1.00000000</i>
   <i type="int" name="NKREDX">     1</i>
   <i type="int" name="NKREDY">     1</i>
   <i type="int" name="NKREDZ">     1</i>
   <i type="logical" name="SHIFTRED"> F  </i>
   <i type="logical" name="ODDONLY"> F  </i>
   <i type="logical" name="EVENONLY"> F  </i>
   <i type="int" name="LMAXFOCK">     0</i>
   <i type="int" name="NMAXFOCKAE">     0</i>
   <i type="logical" name="LFOCKAEDFT"> F  </i>
   <i name="HFSCREEN">      0.00000000</i>
   <i name="HFSCREENC">      0.00000000</i>
   <i type="int" name="NBANDSGWLOW">     0</i>
  </separator>
  <separator name="vdW DFT" >
   <i type="logical" name="LUSE_VDW"> F  </i>
   <i name="Zab_VDW">     -0.84910000</i>
   <i name="PARAM1">      0.12340000</i>
   <i name="PARAM2">      1.00000000</i>
   <i name="PARAM3">      0.00000000</i>
  </separator>
  <separator name="model GW" >
   <i type="int" name="MODEL_GW">     0</i>
   <i name="MODEL_EPS0">      6.09994528</i>
   <i name="MODEL_ALPHA">      1.00000000</i>
  </separator>
  <separator name="linear response parameters" >
   <i type="logical" name="LEPSILON"> F  </i>
   <i type="logical" name="LRPA"> F  </i>
   <i type="logical" name="LNABLA"> F  </i>
   <i type="logical" name="LVEL"> F  </i>
   <i type="int" name="KINTER">     0</i>
   <i name="CSHIFT">      0.10000000</i>
   <i name="OMEGAMAX">     -1.00000000</i>
   <i name="DEG_THRESHOLD">      0.00200000</i>
   <i name="RTIME">     -0.10000000</i>
   <i name="WPLASMAI">      0.00000000</i>
   <v name="DFIELD">      0.00000000      0.00000000      0.00000000</v>
   <v name="WPLASMA">      0.00000000      0.00000000      0.00000000      0.00000000      0.00000000      0.00000000      0.00000000      0.00000000      0.00000000</v>
  </separator>
  <separator name="orbital magnetization" >
   <i type="logical" name="NUCIND"> F  </i>
   <v name="MAGPOS">      0.00000000      0.00000000      0.00000000</v>
   <i type="logical" name="LNICSALL"> T  </i>
   <i type="logical" name="ORBITALMAG"> F  </i>
   <i type="logical" name="LMAGBLOCH"> F  </i>
   <i type="logical" name="LCHIMAG"> F  </i>
   <i type="logical" name="LGAUGE"> T  </i>
   <i type="int" name="MAGATOM">     0</i>
   <v name="MAGDIPOL">      0.00000000      0.00000000      0.00000000</v>
   <v name="AVECCONST">      0.00000000      0.00000000      0.00000000</v>
  </separator>
  <separator name="response functions" >
   <i type="logical" name="LADDER"> F  </i>
   <i type="logical" name="LRPAFORCE"> F  </i>
   <i type="logical" name="LFXC"> F  </i>
   <i type="logical" name="LHARTREE"> T  </i>
   <i type="int" name="IBSE">     0</i>
   <v type="int" name="KPOINT">    -1     0     0     0</v>
   <i type="logical" name="LTCTE"> F  </i>
   <i type="logical" name="LTETE"> F  </i>
   <i type="logical" name="LTRIPLET"> F  </i>
   <i type="logical" name="LFXCEPS"> F  </i>
   <i type="logical" name="LFXHEG"> F  </i>
   <i type="int" name="NATURALO">     2</i>
   <i type="logical" name="L2ORDER"> F  </i>
   <i type="logical" name="LMP2LT"> F  </i>
   <i type="logical" name="LUSEW"> F  </i>
   <i name="ENCUTGW">     -2.00000000</i>
   <i name="ENCUTGWSOFT">     -2.00000000</i>
   <i name="ENCUTLF">     -1.00000000</i>
   <i type="int" name="LMAXMP2">    -1</i>
   <i name="SCISSOR">      0.00000000</i>
   <i type="int" name="NOMEGA">     0</i>
   <i type="int" name="NOMEGAR">     0</i>
   <i type="int" name="NBANDSGW">    -1</i>
   <i type="int" name="NBANDSO">    -1</i>
   <i type="int" name="NBANDSV">    -1</i>
   <i type="int" name="NELM">   500</i>
   <i type="int" name="NELMHF">     1</i>
   <i type="int" name="DIM">     3</i>
   <i type="int" name="ANTIRES">     0</i>
   <i name="OMEGAMAX">    -30.00000000</i>
   <i name="OMEGAMIN">    -30.00000000</i>
   <i name="OMEGATL">   -200.00000000</i>
   <i type="int" name="OMEGAGRID">   140</i>
   <i name="CSHIFT">     -0.10000000</i>
   <i type="logical" name="SELFENERGY"> F  </i>
   <i type="logical" name="LSPECTRAL"> F  </i>
   <i type="logical" name="LSPECTRALGW"> F  </i>
   <i type="logical" name="LSINGLES"> F  </i>
   <i type="logical" name="LFERMIGW"> F  </i>
   <i type="logical" name="ODDONLYGW"> F  </i>
   <i type="logical" name="EVENONLYGW"> F  </i>
   <i type="int" name="NKREDLFX">     1</i>
   <i type="int" name="NKREDLFY">     1</i>
   <i type="int" name="NKREDLFZ">     1</i>
   <i type="int" name="MAXMEM">  2800</i>
   <i type="int" name="TELESCOPE">     0</i>
   <i type="int" name="TAUPAR">     1</i>
   <i type="int" name="OMEGAPAR">    -1</i>
   <i name="LAMBDA">      1.00000000</i>
  </separator>
  <separator name="External order field" >
   <i name="OFIELD_KAPPA">      0.00000000</i>
   <v name="OFIELD_K">      0.00000000      0.00000000      0.00000000</v>
   <i name="OFIELD_Q6_NEAR">      0.00000000</i>
   <i name="OFIELD_Q6_FAR">      0.00000000</i>
   <i name="OFIELD_A">      0.00000000</i>
  </separator>
 </parameters>
 <atominfo>
  <atoms>      93 </atoms>
  <types>       2 </types>
  <array name="atoms" >
   <dimension dim="1">ion</dimension>
   <field type="string">element</field>
   <field type="int">atomtype</field>
   <set>
    <rc><c>O </c><c>   1</c></rc>
    <rc><c>O </c><c>   1</c></rc>
    <rc><c>O </c><c>   1</c></rc>
    <rc><c>O </c><c>   1</c></rc>
    <rc><c>O </c><c>   1</c></rc>
    <rc><c>O </c><c>   1</c></rc>
    <rc><c>O </c><c>   1</c></rc>
    <rc><c>O </c><c>   1</c></rc>
    <rc><c>O </c><c>   1</c></rc>
    <rc><c>O </c><c>   1</c></rc>
    <rc><c>O </c><c>   1</c></rc>
    <rc><c>O </c><c>   1</c></rc>
    <rc><c>O </c><c>   1</c></rc>
    <rc><c>O </c><c>   1</c></rc>
    <rc><c>O </c><c>   1</c></rc>
    <rc><c>O </c><c>   1</c></rc>
    <rc><c>O </c><c>   1</c></rc>
    <rc><c>O </c><c>   1</c></rc>
    <rc><c>O </c><c>   1</c></rc>
    <rc><c>O </c><c>   1</c></rc>
    <rc><c>O </c><c>   1</c></rc>
    <rc><c>O </c><c>   1</c></rc>
    <rc><c>O </c><c>   1</c></rc>
    <rc><c>O </c><c>   1</c></rc>
    <rc><c>O </c><c>   1</c></rc>
    <rc><c>O </c><c>   1</c></rc>
    <rc><c>O </c><c>   1</c></rc>
    <rc><c>O </c><c>   1</c></rc>
    <rc><c>O </c><c>   1</c></rc>
    <rc><c>O </c><c>   1</c></rc>
    <rc><c>O </c><c>   1</c></rc>
    <rc><c>H </c><c>   2</c></rc>
    <rc><c>H </c><c>   2</c></rc>
    <rc><c>H </c><c>   2</c></rc>
    <rc><c>H </c><c>   2</c></rc>
    <rc><c>H </c><c>   2</c></rc>
    <rc><c>H </c><c>   2</c></rc>
    <rc><c>H </c><c>   2</c></rc>
    <rc><c>H </c><c>   2</c></rc>
    <rc><c>H </c><c>   2</c></rc>
    <rc><c>H </c><c>   2</c></rc>
    <rc><c>H </c><c>   2</c></rc>
    <rc><c>H </c><c>   2</c></rc>
    <rc><c>H </c><c>   2</c></rc>
    <rc><c>H </c><c>   2</c></rc>
    <rc><c>H </c><c>   2</c></rc>
    <rc><c>H </c><c>   2</c></rc>
    <rc><c>H </c><c>   2</c></rc>
    <rc><c>H </c><c>   2</c></rc>
    <rc><c>H </c><c>   2</c></rc>
    <rc><c>H </c><c>   2</c></rc>
    <rc><c>H </c><c>   2</c></rc>
    <rc><c>H </c><c>   2</c></rc>
    <rc><c>H </c><c>   2</c></rc>
    <rc><c>H </c><c>   2</c></rc>
    <rc><c>H </c><c>   2</c></rc>
    <rc><c>H </c><c>   2</c></rc>
    <rc><c>H </c><c>   2</c></rc>
    <rc><c>H </c><c>   2</c></rc>
    <rc><c>H </c><c>   2</c></rc>
    <rc><c>H </c><c>   2</c></rc>
    <rc><c>H </c><c>   2</c></rc>
    <rc><c>H </c><c>   2</c></rc>
    <rc><c>H </c><c>   2</c></rc>
    <rc><c>H </c><c>   2</c></rc>
    <rc><c>H </c><c>   2</c></rc>
    <rc><c>H </c><c>   2</c></rc>
    <rc><c>H </c><c>   2</c></rc>
    <rc><c>H </c><c>   2</c></rc>
    <rc><c>H </c><c>   2</c></rc>
    <rc><c>H </c><c>   2</c></rc>
    <rc><c>H </c><c>   2</c></rc>
    <rc><c>H </c><c>   2</c></rc>
    <rc><c>H </c><c>   2</c></rc>
    <rc><c>H </c><c>   2</c></rc>
    <rc><c>H </c><c>   2</c></rc>
    <rc><c>H </c><c>   2</c></rc>
    <rc><c>H </c><c>   2</c></rc>
    <rc><c>H </c><c>   2</c></rc>
    <rc><c>H </c><c>   2</c></rc>
    <rc><c>H </c><c>   2</c></rc>
    <rc><c>H </c><c>   2</c></rc>
    <rc><c>H </c><c>   2</c></rc>
    <rc><c>H </c><c>   2</c></rc>
    <rc><c>H </c><c>   2</c></rc>
    <rc><c>H </c><c>   2</c></rc>
    <rc><c>H </c><c>   2</c></rc>
    <rc><c>H </c><c>   2</c></rc>
    <rc><c>H </c><c>   2</c></rc>
    <rc><c>H </c><c>   2</c></rc>
    <rc><c>H </c><c>   2</c></rc>
    <rc><c>H </c><c>   2</c></rc>
    <rc><c>H </c><c>   2</c></rc>
   </set>
  </array>
  <array name="atomtypes" >
   <dimension dim="1">type</dimension>
   <field type="int">atomspertype</field>
   <field type="string">element</field>
   <field>mass</field>
   <field>valence</field>
   <field type="string">pseudopotential</field>
   <set>
    <rc><c>  31</c><c>O </c><c>     16.00000000</c><c>      6.00000000</c><c>  PAW_PBE O 08Apr2002                   </c></rc>
    <rc><c>  62</c><c>H </c><c>      1.00000000</c><c>      1.00000000</c><c>  PAW_PBE H 15Jun2001                   </c></rc>
   </set>
  </array>
 </atominfo>
 <structure name="initialpos" >
  <crystal>
   <varray name="basis" >
    <v>       9.81490000       0.00000000       0.00000000 </v>
    <v>       0.00000000       9.81490000       0.00000000 </v>
    <v>       0.00000000       0.00000000       9.81490000 </v>
   </varray>
   <i name="volume">    945.49151840 </i>
   <varray name="rec_basis" >
    <v>       0.10188591       0.00000000       0.00000000 </v>
    <v>       0.00000000       0.10188591       0.00000000 </v>
    <v>       0.00000000       0.00000000       0.10188591 </v>
   </varray>
  </crystal>
  <varray name="positions" >
   <v>       0.58007825       0.38460911       0.13049547 </v>
   <v>       0.12678682       0.81065217       0.60808465 </v>
   <v>       0.08636349       0.56304700       0.75225626 </v>
   <v>       0.06954151       0.76404752       0.16706029 </v>
   <v>       0.74868007       0.01863340       0.69936423 </v>
   <v>       0.72029975       0.39280074       0.75736279 </v>
   <v>       0.57451324       0.19109313       0.79056536 </v>
   <v>       0.01370793       0.21352026       0.18370029 </v>
   <v>       0.27985817       0.85774893       0.97801241 </v>
   <v>       0.83990973       0.39263569       0.02211454 </v>
   <v>       0.27231454       0.21278362       0.70574738 </v>
   <v>       0.96295194       0.33092747       0.67114591 </v>
   <v>       0.72686426       0.81642197       0.87132829 </v>
   <v>       0.67680262       0.04388817       0.43445476 </v>
   <v>       0.34579364       0.60987274       0.85027560 </v>
   <v>       0.23183629       0.13718836       0.95067092 </v>
   <v>       0.46618203       0.14060969       0.09200511 </v>
   <v>       0.68321124       0.65365210       0.41884889 </v>
   <v>       0.84399230       0.94896535       0.23728107 </v>
   <v>       0.34175488       0.36316621       0.44007886 </v>
   <v>       0.41295989       0.11879184       0.37907671 </v>
   <v>       0.00387014       0.04610266       0.63075019 </v>
   <v>       0.14530764       0.03631010       0.37328450 </v>
   <v>       0.37380921       0.83351231       0.49986245 </v>
   <v>       0.35358893       0.54351038       0.11275815 </v>
   <v>       0.46558702       0.73509664       0.26201999 </v>
   <v>       0.55480851       0.65211362       0.71194510 </v>
   <v>       0.63735036       0.35655891       0.39870809 </v>
   <v>       0.93459210       0.65359708       0.95178575 </v>
   <v>       0.60185534       0.91056037       0.09829820 </v>
   <v>       0.97184383       0.66475766       0.39946102 </v>
   <v>       0.53392189       0.47011483       0.12172819 </v>
   <v>       0.67847253       0.40687220       0.08189589 </v>
   <v>       0.06793650       0.79717572       0.52857390 </v>
   <v>       0.11333585       0.72500586       0.66863748 </v>
   <v>       0.04911532       0.46629105       0.74899286 </v>
   <v>       0.16984585       0.57384283       0.80112584 </v>
   <v>       0.03964870       0.84964289       0.18904930 </v>
   <v>       0.04867946       0.72110261       0.24917014 </v>
   <v>       0.68359229       0.01474585       0.61904553 </v>
   <v>       0.71982394       0.93860233       0.74848037 </v>
   <v>       0.67690450       0.46130068       0.70385129 </v>
   <v>       0.65027153       0.32434869       0.80607342 </v>
   <v>       0.51381369       0.16745662       0.86700017 </v>
   <v>       0.62553668       0.11494259       0.78477213 </v>
   <v>       0.93805704       0.25654872       0.15035303 </v>
   <v>       0.04599456       0.25845195       0.27862739 </v>
   <v>       0.24892154       0.96659579       0.96885317 </v>
   <v>       0.23119848       0.81359871       0.05802484 </v>
   <v>       0.80436377       0.39975649       0.92926622 </v>
   <v>       0.86107347       0.49410896       0.02345821 </v>
   <v>       0.18111137       0.19562808       0.69138453 </v>
   <v>       0.29520932       0.27447045       0.63237629 </v>
   <v>       0.98620404       0.23785877       0.65628585 </v>
[...]
       <r>   -21.9110    21.5839    33.9331 </r>
       <r>   -21.7954    24.6294    36.7904 </r>
       <r>   -21.6797    12.9701    38.2908 </r>
       <r>   -21.5640    18.2335    40.4014 </r>
       <r>   -21.4483    21.9527    42.9464 </r>
       <r>   -21.3327     9.4072    44.0358 </r>
       <r>   -21.2170    11.2309    45.3349 </r>
       <r>   -21.1013    29.5645    48.7585 </r>
       <r>   -20.9856    24.3784    51.5796 </r>
       <r>   -20.8700    11.9995    52.9676 </r>
       <r>   -20.7543    12.2267    54.3850 </r>
       <r>   -20.6386    18.2247    56.4993 </r>
       <r>   -20.5229    11.4288    57.8213 </r>
       <r>   -20.4073     4.6655    58.3631 </r>
       <r>   -20.2916     9.0760    59.4130 </r>
       <r>   -20.1759     4.3830    59.9223 </r>
       <r>   -20.0602     0.6732    60.0001 </r>
       <r>   -19.9446     0.6818    60.0790 </r>
       <r>   -19.8289     4.4253    60.5917 </r>
       <r>   -19.7132     8.8798    61.6189 </r>
       <r>   -19.5975     2.9014    61.9545 </r>
       <r>   -19.4819     0.3537    61.9954 </r>
       <r>   -19.3662     0.0000    62.0000 </r>
       <r>   -19.2505     0.0000    62.0000 </r>
       <r>   -19.1348     0.0000    62.0000 </r>
       <r>   -19.0192     0.0000    62.0000 </r>
       <r>   -18.9035     0.0000    62.0000 </r>
       <r>   -18.7878     0.0000    62.0000 </r>
       <r>   -18.6721     0.0000    62.0000 </r>
       <r>   -18.5565     0.0000    62.0000 </r>
       <r>   -18.4408     0.0000    62.0000 </r>
       <r>   -18.3251     0.0000    62.0000 </r>
       <r>   -18.2094     0.0000    62.0000 </r>
       <r>   -18.0938     0.0000    62.0000 </r>
       <r>   -17.9781     0.0000    62.0000 </r>
       <r>   -17.8624     0.0000    62.0000 </r>
       <r>   -17.7467     0.0000    62.0000 </r>
       <r>   -17.6311     0.0000    62.0000 </r>
       <r>   -17.5154     0.0000    62.0000 </r>
       <r>   -17.3997     0.0000    62.0000 </r>
       <r>   -17.2840     0.0000    62.0000 </r>
       <r>   -17.1684     0.0000    62.0000 </r>
       <r>   -17.0527     0.0000    62.0000 </r>
       <r>   -16.9370     0.0000    62.0000 </r>
       <r>   -16.8213     0.0000    62.0000 </r>
       <r>   -16.7057     0.0000    62.0000 </r>
       <r>   -16.5900     0.0000    62.0000 </r>
       <r>   -16.4743     0.0000    62.0000 </r>
       <r>   -16.3586     0.0000    62.0000 </r>
       <r>   -16.2430     0.0000    62.0000 </r>
       <r>   -16.1273     0.0000    62.0000 </r>
       <r>   -16.0116     0.0000    62.0000 </r>
       <r>   -15.8959     0.0000    62.0000 </r>
       <r>   -15.7803     0.0000    62.0000 </r>
       <r>   -15.6646     0.0000    62.0000 </r>
       <r>   -15.5489     0.0000    62.0000 </r>
       <r>   -15.4332     0.0000    62.0000 </r>
       <r>   -15.3176     0.0000    62.0000 </r>
       <r>   -15.2019     0.0000    62.0000 </r>
       <r>   -15.0862     0.0000    62.0000 </r>
       <r>   -14.9705     0.0000    62.0000 </r>
       <r>   -14.8549     0.0000    62.0000 </r>
       <r>   -14.7392     0.0000    62.0000 </r>
       <r>   -14.6235     0.0000    62.0000 </r>
       <r>   -14.5078     0.0000    62.0000 </r>
       <r>   -14.3922     0.0000    62.0000 </r>
       <r>   -14.2765     0.0000    62.0000 </r>
       <r>   -14.1608     0.0000    62.0000 </r>
       <r>   -14.0451     0.0000    62.0000 </r>
       <r>   -13.9295     0.0000    62.0000 </r>
       <r>   -13.8138     0.0000    62.0000 </r>
       <r>   -13.6981     0.0000    62.0000 </r>
       <r>   -13.5824     0.0000    62.0000 </r>
       <r>   -13.4668     0.0000    62.0000 </r>
       <r>   -13.3511     0.0000    62.0000 </r>
       <r>   -13.2354     0.0000    62.0000 </r>
       <r>   -13.1197     0.0000    62.0000 </r>
       <r>   -13.0041     0.0000    62.0000 </r>
       <r>   -12.8884     0.0000    62.0000 </r>
       <r>   -12.7727     0.0000    62.0000 </r>
       <r>   -12.6570     0.0000    62.0000 </r>
       <r>   -12.5414     0.0000    62.0000 </r>
       <r>   -12.4257     0.0000    62.0000 </r>
       <r>   -12.3100     0.0000    62.0000 </r>
       <r>   -12.1943     0.0000    62.0000 </r>
       <r>   -12.0787     0.0000    62.0000 </r>
       <r>   -11.9630     0.0026    62.0003 </r>
       <r>   -11.8473     0.0248    62.0032 </r>
       <r>   -11.7316     0.2473    62.0318 </r>
       <r>   -11.6160     2.1698    62.2828 </r>
       <r>   -11.5003     8.9919    63.3229 </r>
       <r>   -11.3846    11.0634    64.6027 </r>
       <r>   -11.2689    16.4326    66.5035 </r>
       <r>   -11.1533    14.0639    68.1303 </r>
       <r>   -11.0376    15.1104    69.8794 </r>
       <r>   -10.9219    20.0508    72.2036 </r>
       <r>   -10.8062    12.9800    73.7077 </r>
       <r>   -10.6906     4.7601    74.2583 </r>
       <r>   -10.5749    13.4757    75.8180 </r>
       <r>   -10.4592    23.9860    78.5960 </r>
       <r>   -10.3435    18.7440    80.7642 </r>
       <r>   -10.2279    14.0434    82.3887 </r>
       <r>   -10.1122    21.4570    84.8770 </r>
       <r>    -9.9965    25.5368    87.8330 </r>
       <r>    -9.8808    22.2502    90.4090 </r>
       <r>    -9.7652    22.5676    93.0195 </r>
       <r>    -9.6495    19.6322    95.2954 </r>
       <r>    -9.5338    13.3638    96.8463 </r>
       <r>    -9.4181    18.3875    98.9766 </r>
       <r>    -9.3025    20.1939   101.3145 </r>
       <r>    -9.1868    29.5599   104.7347 </r>
       <r>    -9.0711    28.1458   107.9942 </r>
       <r>    -8.9554    26.3135   111.0396 </r>
       <r>    -8.8398    20.8086   113.4532 </r>
       <r>    -8.7241    12.0249   114.8517 </r>
       <r>    -8.6084    19.1473   117.0665 </r>
       <r>    -8.4927    20.1468   119.4047 </r>
       <r>    -8.3771    22.7230   122.0332 </r>
       <r>    -8.2614    14.1751   123.6767 </r>
       <r>    -8.1457     3.9535   124.1355 </r>
       <r>    -8.0300     8.1325   125.0784 </r>
       <r>    -7.9144    17.1311   127.0635 </r>
       <r>    -7.7987    17.9248   129.1370 </r>
       <r>    -7.6830     8.6879   130.1419 </r>
       <r>    -7.5673    13.2860   131.6815 </r>
       <r>    -7.4517    23.8050   134.4390 </r>
       <r>    -7.3360    23.4157   137.1484 </r>
       <r>    -7.2203    26.3013   140.1909 </r>
       <r>    -7.1046    25.7189   143.1719 </r>
       <r>    -6.9890    22.9221   145.8268 </r>
       <r>    -6.8733    23.3493   148.5307 </r>
       <r>    -6.7576    25.5903   151.4955 </r>
       <r>    -6.6419    30.0746   154.9761 </r>
       <r>    -6.5263    28.3115   158.2558 </r>
       <r>    -6.4106    18.8583   160.4409 </r>
       <r>    -6.2949    13.5536   162.0131 </r>
       <r>    -6.1792    15.0181   163.7564 </r>
       <r>    -6.0636    20.0093   166.0742 </r>
       <r>    -5.9479    23.1739   168.7569 </r>
       <r>    -5.8322    24.8681   171.6353 </r>
       <r>    -5.7165    22.1199   174.1978 </r>
       <r>    -5.6009    24.3971   177.0241 </r>
       <r>    -5.4852    25.5128   179.9789 </r>
       <r>    -5.3695    23.2429   182.6709 </r>
       <r>    -5.2538    20.0606   184.9956 </r>
       <r>    -5.1382    13.5042   186.5608 </r>
       <r>    -5.0225    22.9010   189.2144 </r>
       <r>    -4.9068    27.1443   192.3578 </r>
       <r>    -4.7911    15.2624   194.1245 </r>
       <r>    -4.6755    18.1194   196.2227 </r>
       <r>    -4.5598    29.3352   199.6232 </r>
       <r>    -4.4441    43.1706   204.6190 </r>
       <r>    -4.3284    49.2925   210.3209 </r>
       <r>    -4.2128    44.5378   215.4771 </r>
       <r>    -4.0971    44.2767   220.6051 </r>
       <r>    -3.9814    39.3882   225.1702 </r>
       <r>    -3.8657    37.2708   229.4847 </r>
       <r>    -3.7501    36.1982   233.6794 </r>
       <r>    -3.6344    40.0157   238.3120 </r>
       <r>    -3.5187    35.5327   242.4290 </r>
       <r>    -3.4030    17.5456   244.4640 </r>
       <r>    -3.2874    11.3696   245.7847 </r>
       <r>    -3.1717     8.6541   246.7949 </r>
       <r>    -3.0560     8.2723   247.7532 </r>
       <r>    -2.9403     1.8677   247.9730 </r>
       <r>    -2.8247     0.2100   247.9973 </r>
       <r>    -2.7090     0.0000   248.0000 </r>
       <r>    -2.5933     0.0000   248.0000 </r>
       <r>    -2.4776     0.0000   248.0000 </r>
       <r>    -2.3620     0.0000   248.0000 </r>
       <r>    -2.2463     0.0000   248.0000 </r>
       <r>    -2.1306     0.0000   248.0000 </r>
       <r>    -2.0149     0.0000   248.0000 </r>
       <r>    -1.8993     0.0000   248.0000 </r>
       <r>    -1.7836     0.0000   248.0000 </r>
       <r>    -1.6679     0.0000   248.0000 </r>
       <r>    -1.5522     0.0000   248.0000 </r>
       <r>    -1.4366     0.0000   248.0000 </r>
       <r>    -1.3209     0.0000   248.0000 </r>
       <r>    -1.2052     0.0000   248.0000 </r>
       <r>    -1.0895     0.0000   248.0000 </r>
       <r>    -0.9739     0.0000   248.0000 </r>
       <r>    -0.8582     0.0000   248.0000 </r>
       <r>    -0.7425     0.0000   248.0000 </r>
       <r>    -0.6268     0.0000   248.0000 </r>
       <r>    -0.5112     0.0000   248.0000 </r>
       <r>    -0.3955     0.0000   248.0000 </r>
       <r>    -0.2798     0.0000   248.0000 </r>
       <r>    -0.1641     0.0000   248.0000 </r>
       <r>    -0.0485     0.0000   248.0000 </r>
       <r>     0.0672     0.0000   248.0000 </r>
       <r>     0.1829     0.0000   248.0000 </r>
       <r>     0.2986     0.0006   248.0001 </r>
       <r>     0.4142     0.0063   248.0008 </r>
       <r>     0.5299     0.0603   248.0078 </r>
       <r>     0.6456     0.4169   248.0560 </r>
       <r>     0.7612     1.3797   248.2156 </r>
       <r>     0.8769     2.7231   248.5306 </r>
       <r>     0.9926     4.1653   249.0124 </r>
       <r>     1.1083     4.4715   249.5298 </r>
       <r>     1.2239     2.9452   249.8708 </r>
       <r>     1.3396     0.9931   249.9863 </r>
       <r>     1.4553     0.4390   250.0380 </r>
       <r>     1.5710     1.2399   250.1820 </r>
       <r>     1.6866     2.9102   250.5187 </r>
       <r>     1.8023     4.9406   251.0903 </r>
       <r>     1.9180     5.5269   251.7297 </r>
       <r>     2.0337     5.1536   252.3261 </r>
       <r>     2.1493     5.9558   253.0159 </r>
       <r>     2.2650     5.9025   253.6996 </r>
       <r>     2.3807     5.8075   254.3721 </r>
       <r>     2.4964     6.6522   255.1426 </r>
       <r>     2.6120     6.9482   255.9473 </r>
       <r>     2.7277     6.5502   256.7057 </r>
       <r>     2.8434     7.1635   257.5354 </r>
       <r>     2.9591     7.9603   258.4573 </r>
       <r>     3.0747     9.4077   259.5465 </r>
       <r>     3.1904    10.3704   260.7471 </r>
       <r>     3.3061    10.3416   261.9446 </r>
       <r>     3.4218    10.4861   263.1588 </r>
       <r>     3.5374    11.7415   264.5188 </r>
       <r>     3.6531    11.5110   265.8520 </r>
       <r>     3.7688    10.6337   267.0833 </r>
       <r>     3.8845    10.3974   268.2879 </r>
       <r>     4.0001    11.6161   269.6337 </r>
       <r>     4.1158    12.7746   271.1128 </r>
       <r>     4.2315    13.3179   272.6549 </r>
       <r>     4.3472    13.9333   274.2684 </r>
       <r>     4.4628    14.5064   275.9483 </r>
       <r>     4.5785    15.1154   277.6988 </r>
       <r>     4.6942    15.4104   279.4833 </r>
       <r>     4.8099    15.5181   281.2806 </r>
       <r>     4.9255    15.7307   283.1028 </r>
       <r>     5.0412    16.8150   285.0502 </r>
       <r>     5.1569    16.6651   286.9806 </r>
       <r>     5.2726    18.6204   289.1367 </r>
       <r>     5.3882    20.6882   291.5325 </r>
       <r>     5.5039    20.7444   293.9344 </r>
       <r>     5.6196    20.9694   296.3628 </r>
       <r>     5.7353    21.8367   298.8919 </r>
       <r>     5.8509    22.0947   301.4508 </r>
       <r>     5.9666    22.3043   304.0342 </r>
       <r>     6.0823    23.7764   306.7880 </r>
       <r>     6.1980    24.2363   309.5949 </r>
       <r>     6.3136    24.4948   312.4315 </r>
       <r>     6.4293    25.7644   315.4153 </r>
       <r>     6.5450    27.4861   318.5985 </r>
       <r>     6.6607    27.5231   321.7862 </r>
       <r>     6.7763    25.7321   324.7664 </r>
       <r>     6.8920    23.4851   327.4872 </r>
       <r>     7.0077    23.0823   330.1618 </r>
       <r>     7.1234    23.0864   332.8363 </r>
       <r>     7.2390    21.4557   335.3217 </r>
       <r>     7.3547    19.7126   337.6055 </r>
       <r>     7.4704    17.6076   339.6460 </r>
       <r>     7.5861    14.5955   341.3378 </r>
       <r>     7.7017    11.3275   342.6511 </r>
       <r>     7.8174     7.4460   343.5154 </r>
       <r>     7.9331     3.1878   343.8866 </r>
       <r>     8.0488     0.7809   343.9787 </r>
       <r>     8.1644     0.1439   343.9968 </r>
       <r>     8.2801     0.0204   343.9997 </r>
       <r>     8.3958     0.0019   344.0000 </r>
       <r>     8.5115     0.0000   344.0000 </r>
       <r>     8.6271     0.0000   344.0000 </r>
       <r>     8.7428     0.0000   344.0000 </r>
       <r>     8.8585     0.0000   344.0000 </r>
       <r>     8.9742     0.0000   344.0000 </r>
       <r>     9.0898     0.0000   344.0000 </r>
       <r>     9.2055     0.0000   344.0000 </r>
       <r>     9.3212     0.0000   344.0000 </r>
       <r>     9.4369     0.0000   344.0000 </r>
       <r>     9.5525     0.0000   344.0000 </r>
       <r>     9.6682     0.0000   344.0000 </r>
      </set>
     </set>
    </array>
   </total>
  </dos>
 </calculation>
 <structure name="finalpos" >
  <crystal>
   <varray name="basis" >
    <v>       9.81490000       0.00000000       0.00000000 </v>
    <v>       0.00000000       9.81490000       0.00000000 </v>
    <v>       0.00000000       0.00000000       9.81490000 </v>
   </varray>
   <i name="volume">    945.49151840 </i>
   <varray name="rec_basis" >
    <v>       0.10188591       0.00000000       0.00000000 </v>
    <v>       0.00000000       0.10188591       0.00000000 </v>
    <v>       0.00000000       0.00000000       0.10188591 </v>
   </varray>
  </crystal>
  <varray name="positions" >
   <v>       0.58007825       0.38460911       0.13049547 </v>
   <v>       0.12678682       0.81065217       0.60808465 </v>
   <v>       0.08636349       0.56304700       0.75225626 </v>
   <v>       0.06954151       0.76404752       0.16706029 </v>
   <v>       0.74868007       0.01863340       0.69936423 </v>
   <v>       0.72029975       0.39280074       0.75736279 </v>
   <v>       0.57451324       0.19109313       0.79056536 </v>
   <v>       0.01370793       0.21352026       0.18370029 </v>
   <v>       0.27985817       0.85774893       0.97801241 </v>
   <v>       0.83990973       0.39263569       0.02211454 </v>
   <v>       0.27231454       0.21278362       0.70574738 </v>
   <v>       0.96295194       0.33092747       0.67114591 </v>
   <v>       0.72686426       0.81642197       0.87132829 </v>
   <v>       0.67680262       0.04388817       0.43445476 </v>
   <v>       0.34579364       0.60987274       0.85027560 </v>
   <v>       0.23183629       0.13718836       0.95067092 </v>
   <v>       0.46618203       0.14060969       0.09200511 </v>
   <v>       0.68321124       0.65365210       0.41884889 </v>
   <v>       0.84399230       0.94896535       0.23728107 </v>
   <v>       0.34175488       0.36316621       0.44007886 </v>
   <v>       0.41295989       0.11879184       0.37907671 </v>
   <v>       0.00387014       0.04610266       0.63075019 </v>
   <v>       0.14530764       0.03631010       0.37328450 </v>
   <v>       0.37380921       0.83351231       0.49986245 </v>
   <v>       0.35358893       0.54351038       0.11275815 </v>
   <v>       0.46558702       0.73509664       0.26201999 </v>
   <v>       0.55480851       0.65211362       0.71194510 </v>
   <v>       0.63735036       0.35655891       0.39870809 </v>
   <v>       0.93459210       0.65359708       0.95178575 </v>
   <v>       0.60185534       0.91056037       0.09829820 </v>
   <v>       0.97184383       0.66475766       0.39946102 </v>
   <v>       0.53392189       0.47011483       0.12172819 </v>
   <v>       0.67847253       0.40687220       0.08189589 </v>
   <v>       0.06793650       0.79717572       0.52857390 </v>
   <v>       0.11333585       0.72500586       0.66863748 </v>
   <v>       0.04911532       0.46629105       0.74899286 </v>
   <v>       0.16984585       0.57384283       0.80112584 </v>
   <v>       0.03964870       0.84964289       0.18904930 </v>
   <v>       0.04867946       0.72110261       0.24917014 </v>
   <v>       0.68359229       0.01474585       0.61904553 </v>
   <v>       0.71982394       0.93860233       0.74848037 </v>
   <v>       0.67690450       0.46130068       0.70385129 </v>
   <v>       0.65027153       0.32434869       0.80607342 </v>
   <v>       0.51381369       0.16745662       0.86700017 </v>
   <v>       0.62553668       0.11494259       0.78477213 </v>
   <v>       0.93805704       0.25654872       0.15035303 </v>
   <v>       0.04599456       0.25845195       0.27862739 </v>
   <v>       0.24892154       0.96659579       0.96885317 </v>
   <v>       0.23119848       0.81359871       0.05802484 </v>
   <v>       0.80436377       0.39975649       0.92926622 </v>
   <v>       0.86107347       0.49410896       0.02345821 </v>
   <v>       0.18111137       0.19562808       0.69138453 </v>
   <v>       0.29520932       0.27447045       0.63237629 </v>
   <v>       0.98620404       0.23785877       0.65628585 </v>
   <v>       0.86185086       0.31013969       0.68837278 </v>
   <v>       0.68515624       0.84520780       0.95886866 </v>
   <v>       0.79334481       0.74519353       0.91598804 </v>
   <v>       0.69119400       0.14180583       0.41404192 </v>
   <v>       0.56448155       0.05005176       0.41576379 </v>
   <v>       0.35774078       0.57015354       0.95608412 </v>
   <v>       0.30391751       0.70257160       0.88833304 </v>
   <v>       0.23555003       0.19278036       0.85661494 </v>
   <v>       0.16600984       0.16403631       0.01131341 </v>
   <v>       0.37455603       0.13440178       0.05815057 </v>
   <v>       0.47637164       0.23650470       0.11586058 </v>
   <v>       0.63744511       0.62958665       0.52436092 </v>
   <v>       0.60542848       0.67333850       0.36715300 </v>
   <v>       0.90384558       0.03254949       0.18473647 </v>
   <v>       0.75727720       0.98221531       0.30407646 </v>
   <v>       0.40941222       0.42243018       0.46817899 </v>
   <v>       0.39042374       0.26745968       0.42104759 </v>
   <v>       0.30998482       0.09806376       0.36380401 </v>
   <v>       0.42935435       0.10503316       0.27520403 </v>
   <v>       0.90348083       0.02188733       0.64285525 </v>
   <v>       0.06159788       0.96544570       0.63020306 </v>
   <v>       0.06778592       0.03557499       0.29138860 </v>
   <v>       0.07479383       0.04896025       0.46723044 </v>
   <v>       0.29247878       0.79828118       0.55735565 </v>
   <v>       0.44472791       0.81523908       0.57338944 </v>
   <v>       0.39424039       0.61848720       0.15811776 </v>
   <v>       0.29154856       0.47299922       0.16756972 </v>
   <v>       0.43123822       0.75506220       0.34911512 </v>
   <v>       0.48721943       0.80684673       0.19920937 </v>
   <v>       0.59820375       0.69143241       0.79808862 </v>
   <v>       0.46264251       0.64022659       0.75558488 </v>
   <v>       0.61774445       0.37702473       0.29917167 </v>
   <v>       0.66952185       0.44447727       0.39682422 </v>
   <v>       0.00709829       0.61884584       0.85887783 </v>
   <v>       0.99045115       0.70820487       0.02754435 </v>
   <v>       0.55744531       0.00997320       0.08945674 </v>
   <v>       0.68976658       0.91840355       0.12517601 </v>
   <v>       0.87000071       0.65332199       0.40840151 </v>
   <v>       0.00517479       0.57181530       0.40702198 </v>
  </varray>
 </structure>
</modeling>
