  93  93   0   0
  0.1016658E+02  0.9814900E-09  0.9814900E-09  0.9814900E-09  0.5000000E-15
  1.000000000000000E-004
  CAR 
 ice                                     
      9.57166232    -25.01399172  301     -1.95677644      1.00000000
    -25.014  0.0000E+00  0.0000E+00
    -24.899  0.0000E+00  0.0000E+00
    -24.783  0.0000E+00  0.0000E+00
    -24.668  0.0000E+00  0.0000E+00
    -24.553  0.0000E+00  0.0000E+00
    -24.438  0.0000E+00  0.0000E+00
    -24.322  0.0000E+00  0.0000E+00
    -24.207  0.0000E+00  0.0000E+00
    -24.092  0.0000E+00  0.0000E+00
    -23.976  0.0000E+00  0.0000E+00
    -23.861  0.3830E-02  0.4416E-03
    -23.746  0.3657E-01  0.4658E-02
    -23.631  0.3597E+00  0.4613E-01
    -23.515  0.2993E+01  0.3912E+00
    -23.400  0.1071E+02  0.1626E+01
    -23.285  0.1436E+02  0.3282E+01
    -23.169  0.1753E+02  0.5303E+01
    -23.054  0.2025E+02  0.7638E+01
    -22.939  0.1673E+02  0.9567E+01
    -22.824  0.5401E+01  0.1019E+02
    -22.708  0.1093E+02  0.1145E+02
    -22.593  0.2306E+02  0.1412E+02
    -22.478  0.3722E+02  0.1841E+02
    -22.362  0.3626E+02  0.2259E+02
    -22.247  0.2945E+02  0.2598E+02
    -22.132  0.2410E+02  0.2877E+02
    -22.017  0.1934E+02  0.3100E+02
    -21.901  0.1918E+02  0.3322E+02
    -21.786  0.2935E+02  0.3661E+02
    -21.671  0.2997E+02  0.4006E+02
    -21.555  0.2636E+02  0.4310E+02
    -21.440  0.2555E+02  0.4605E+02
    -21.325  0.2735E+02  0.4921E+02
    -21.210  0.2959E+02  0.5263E+02
    -21.094  0.1728E+02  0.5462E+02
    -20.979  0.9561E+01  0.5573E+02
    -20.864  0.2008E+01  0.5597E+02
    -20.748  0.2201E+00  0.5600E+02
    -20.633  0.3016E-01  0.5600E+02
    -20.518  0.2975E+00  0.5604E+02
    -20.403  0.2504E+01  0.5633E+02
    -20.287  0.8713E+01  0.5733E+02
    -20.172  0.5684E+01  0.5799E+02
    -20.057  0.5334E+01  0.5860E+02
    -19.941  0.9303E+01  0.5967E+02
    -19.826  0.5838E+01  0.6035E+02
    -19.711  0.9262E+01  0.6142E+02
    -19.596  0.4350E+01  0.6192E+02
    -19.480  0.6081E+00  0.6199E+02
    -19.365  0.6306E-01  0.6200E+02
    -19.250  0.0000E+00  0.6200E+02
    -19.134  0.0000E+00  0.6200E+02
    -19.019  0.0000E+00  0.6200E+02
    -18.904  0.0000E+00  0.6200E+02
    -18.789  0.0000E+00  0.6200E+02
    -18.673  0.0000E+00  0.6200E+02
    -18.558  0.0000E+00  0.6200E+02
    -18.443  0.0000E+00  0.6200E+02
    -18.327  0.0000E+00  0.6200E+02
    -18.212  0.0000E+00  0.6200E+02
    -18.097  0.0000E+00  0.6200E+02
    -17.982  0.0000E+00  0.6200E+02
    -17.866  0.0000E+00  0.6200E+02
    -17.751  0.0000E+00  0.6200E+02
    -17.636  0.0000E+00  0.6200E+02
    -17.520  0.0000E+00  0.6200E+02
    -17.405  0.0000E+00  0.6200E+02
    -17.290  0.0000E+00  0.6200E+02
    -17.175  0.0000E+00  0.6200E+02
    -17.059  0.0000E+00  0.6200E+02
    -16.944  0.0000E+00  0.6200E+02
    -16.829  0.0000E+00  0.6200E+02
    -16.713  0.0000E+00  0.6200E+02
    -16.598  0.0000E+00  0.6200E+02
    -16.483  0.0000E+00  0.6200E+02
    -16.368  0.0000E+00  0.6200E+02
    -16.252  0.0000E+00  0.6200E+02
    -16.137  0.0000E+00  0.6200E+02
    -16.022  0.0000E+00  0.6200E+02
    -15.906  0.0000E+00  0.6200E+02
    -15.791  0.0000E+00  0.6200E+02
    -15.676  0.0000E+00  0.6200E+02
    -15.561  0.0000E+00  0.6200E+02
    -15.445  0.0000E+00  0.6200E+02
    -15.330  0.0000E+00  0.6200E+02
    -15.215  0.0000E+00  0.6200E+02
    -15.099  0.0000E+00  0.6200E+02
    -14.984  0.0000E+00  0.6200E+02
    -14.869  0.0000E+00  0.6200E+02
    -14.754  0.0000E+00  0.6200E+02
    -14.638  0.0000E+00  0.6200E+02
    -14.523  0.0000E+00  0.6200E+02
    -14.408  0.0000E+00  0.6200E+02
    -14.292  0.0000E+00  0.6200E+02
    -14.177  0.0000E+00  0.6200E+02
    -14.062  0.0000E+00  0.6200E+02
    -13.947  0.0000E+00  0.6200E+02
    -13.831  0.0000E+00  0.6200E+02
    -13.716  0.0000E+00  0.6200E+02
    -13.601  0.0000E+00  0.6200E+02
    -13.485  0.0000E+00  0.6200E+02
    -13.370  0.0000E+00  0.6200E+02
    -13.255  0.0000E+00  0.6200E+02
    -13.140  0.0000E+00  0.6200E+02
    -13.024  0.0000E+00  0.6200E+02
    -12.909  0.0000E+00  0.6200E+02
    -12.794  0.0000E+00  0.6200E+02
    -12.678  0.0000E+00  0.6200E+02
    -12.563  0.0000E+00  0.6200E+02
    -12.448  0.0000E+00  0.6200E+02
    -12.333  0.0000E+00  0.6200E+02
    -12.217  0.0000E+00  0.6200E+02
    -12.102  0.2593E-02  0.6200E+02
    -11.987  0.2432E-01  0.6200E+02
    -11.871  0.2395E+00  0.6203E+02
    -11.756  0.2099E+01  0.6227E+02
    -11.641  0.8951E+01  0.6330E+02
    -11.526  0.1108E+02  0.6458E+02
    -11.410  0.9649E+01  0.6569E+02
    -11.295  0.3754E+01  0.6613E+02
    -11.180  0.8146E+01  0.6707E+02
    -11.064  0.1574E+02  0.6889E+02
    -10.949  0.1358E+02  0.7045E+02
    -10.834  0.1054E+02  0.7167E+02
    -10.719  0.5098E+01  0.7226E+02
    -10.603  0.9854E+01  0.7340E+02
    -10.488  0.1345E+02  0.7495E+02
    -10.373  0.1710E+02  0.7692E+02
    -10.257  0.2561E+02  0.7987E+02
    -10.142  0.2778E+02  0.8308E+02
    -10.027  0.1890E+02  0.8526E+02
     -9.912  0.2628E+02  0.8829E+02
     -9.796  0.4588E+02  0.9359E+02
     -9.681  0.3620E+02  0.9776E+02
     -9.566  0.2602E+02  0.1008E+03
     -9.450  0.2362E+02  0.1035E+03
     -9.335  0.1472E+02  0.1052E+03
     -9.220  0.9458E+01  0.1063E+03
     -9.105  0.1533E+02  0.1081E+03
     -8.989  0.2845E+02  0.1113E+03
     -8.874  0.3189E+02  0.1150E+03
     -8.759  0.1924E+02  0.1172E+03
     -8.643  0.1313E+02  0.1188E+03
     -8.528  0.1205E+02  0.1202E+03
     -8.413  0.1112E+02  0.1214E+03
     -8.298  0.6355E+01  0.1222E+03
     -8.182  0.9488E+01  0.1233E+03
     -8.067  0.1479E+02  0.1250E+03
     -7.952  0.2050E+02  0.1273E+03
     -7.836  0.2190E+02  0.1299E+03
     -7.721  0.1636E+02  0.1318E+03
     -7.606  0.9694E+01  0.1329E+03
     -7.491  0.1208E+02  0.1343E+03
     -7.375  0.1748E+02  0.1363E+03
     -7.260  0.2508E+02  0.1392E+03
     -7.145  0.2845E+02  0.1425E+03
     -7.029  0.2718E+02  0.1456E+03
     -6.914  0.2673E+02  0.1487E+03
     -6.799  0.2839E+02  0.1520E+03
     -6.684  0.2313E+02  0.1546E+03
     -6.568  0.1993E+02  0.1569E+03
     -6.453  0.1597E+02  0.1588E+03
     -6.338  0.1425E+02  0.1604E+03
     -6.222  0.1609E+02  0.1623E+03
     -6.107  0.1942E+02  0.1645E+03
     -5.992  0.2318E+02  0.1672E+03
     -5.877  0.2398E+02  0.1700E+03
     -5.761  0.2139E+02  0.1724E+03
     -5.646  0.2346E+02  0.1751E+03
     -5.531  0.2905E+02  0.1785E+03
     -5.415  0.2753E+02  0.1817E+03
     -5.300  0.2290E+02  0.1843E+03
     -5.185  0.2524E+02  0.1872E+03
     -5.070  0.1829E+02  0.1893E+03
     -4.954  0.6249E+01  0.1901E+03
     -4.839  0.9365E+01  0.1911E+03
     -4.724  0.2782E+02  0.1944E+03
     -4.608  0.3439E+02  0.1983E+03
     -4.493  0.3908E+02  0.2028E+03
     -4.378  0.5163E+02  0.2088E+03
     -4.263  0.4703E+02  0.2142E+03
     -4.147  0.5100E+02  0.2201E+03
     -4.032  0.4652E+02  0.2255E+03
     -3.917  0.3786E+02  0.2298E+03
     -3.801  0.3592E+02  0.2340E+03
     -3.686  0.3917E+02  0.2385E+03
     -3.571  0.2723E+02  0.2417E+03
     -3.456  0.1530E+02  0.2434E+03
     -3.340  0.1445E+02  0.2451E+03
     -3.225  0.1004E+02  0.2463E+03
     -3.110  0.1007E+02  0.2474E+03
     -2.994  0.4324E+01  0.2479E+03
     -2.879  0.5815E+00  0.2480E+03
     -2.764  0.6020E-01  0.2480E+03
     -2.649  0.0000E+00  0.2480E+03
     -2.533  0.0000E+00  0.2480E+03
     -2.418  0.0000E+00  0.2480E+03
     -2.303  0.0000E+00  0.2480E+03
     -2.187  0.0000E+00  0.2480E+03
     -2.072  0.0000E+00  0.2480E+03
     -1.957  0.0000E+00  0.2480E+03
     -1.842  0.0000E+00  0.2480E+03
     -1.726  0.0000E+00  0.2480E+03
     -1.611  0.0000E+00  0.2480E+03
     -1.496  0.0000E+00  0.2480E+03
     -1.380  0.0000E+00  0.2480E+03
     -1.265  0.0000E+00  0.2480E+03
     -1.150  0.0000E+00  0.2480E+03
     -1.035  0.0000E+00  0.2480E+03
     -0.919  0.0000E+00  0.2480E+03
     -0.804  0.0000E+00  0.2480E+03
     -0.689  0.0000E+00  0.2480E+03
     -0.573  0.0000E+00  0.2480E+03
     -0.458  0.0000E+00  0.2480E+03
     -0.343  0.0000E+00  0.2480E+03
     -0.228  0.0000E+00  0.2480E+03
     -0.112  0.0000E+00  0.2480E+03
      0.003  0.0000E+00  0.2480E+03
      0.118  0.0000E+00  0.2480E+03
      0.234  0.5896E-06  0.2480E+03
      0.349  0.8443E-04  0.2480E+03
      0.464  0.9658E-03  0.2480E+03
      0.579  0.9653E-02  0.2480E+03
      0.695  0.8750E-01  0.2480E+03
      0.810  0.4948E+00  0.2481E+03
      0.925  0.1277E+01  0.2482E+03
      1.041  0.2122E+01  0.2485E+03
      1.156  0.3066E+01  0.2488E+03
      1.271  0.3675E+01  0.2492E+03
      1.386  0.3445E+01  0.2496E+03
      1.502  0.2703E+01  0.2499E+03
      1.617  0.2552E+01  0.2502E+03
      1.732  0.3778E+01  0.2507E+03
      1.848  0.5186E+01  0.2513E+03
      1.963  0.4687E+01  0.2518E+03
      2.078  0.4457E+01  0.2523E+03
      2.193  0.5727E+01  0.2530E+03
      2.309  0.6109E+01  0.2537E+03
      2.424  0.6252E+01  0.2544E+03
      2.539  0.6997E+01  0.2552E+03
      2.655  0.7515E+01  0.2561E+03
      2.770  0.7713E+01  0.2570E+03
      2.885  0.9311E+01  0.2581E+03
      3.000  0.8976E+01  0.2591E+03
      3.116  0.8809E+01  0.2601E+03
      3.231  0.8169E+01  0.2611E+03
      3.346  0.8494E+01  0.2620E+03
      3.462  0.8239E+01  0.2630E+03
      3.577  0.9848E+01  0.2641E+03
      3.692  0.1129E+02  0.2654E+03
      3.807  0.1116E+02  0.2667E+03
      3.923  0.1168E+02  0.2681E+03
      4.038  0.1243E+02  0.2695E+03
      4.153  0.1288E+02  0.2710E+03
      4.269  0.1365E+02  0.2726E+03
      4.384  0.1509E+02  0.2743E+03
      4.499  0.1423E+02  0.2759E+03
      4.614  0.1415E+02  0.2776E+03
      4.730  0.1474E+02  0.2793E+03
      4.845  0.1539E+02  0.2811E+03
      4.960  0.1610E+02  0.2829E+03
      5.076  0.1782E+02  0.2850E+03
      5.191  0.2009E+02  0.2873E+03
      5.306  0.2045E+02  0.2896E+03
      5.421  0.2016E+02  0.2920E+03
      5.537  0.1997E+02  0.2943E+03
      5.652  0.2115E+02  0.2967E+03
      5.767  0.2138E+02  0.2992E+03
      5.883  0.2140E+02  0.3017E+03
      5.998  0.2305E+02  0.3043E+03
      6.113  0.2430E+02  0.3071E+03
      6.228  0.2588E+02  0.3101E+03
      6.344  0.2780E+02  0.3133E+03
      6.459  0.2739E+02  0.3165E+03
      6.574  0.2591E+02  0.3195E+03
      6.690  0.2507E+02  0.3224E+03
      6.805  0.2458E+02  0.3252E+03
      6.920  0.2399E+02  0.3280E+03
      7.035  0.2339E+02  0.3307E+03
      7.151  0.2146E+02  0.3331E+03
      7.266  0.1981E+02  0.3354E+03
      7.381  0.1855E+02  0.3376E+03
      7.497  0.1708E+02  0.3396E+03
      7.612  0.1486E+02  0.3413E+03
      7.727  0.1169E+02  0.3426E+03
      7.842  0.7817E+01  0.3435E+03
      7.958  0.3268E+01  0.3439E+03
      8.073  0.7403E+00  0.3440E+03
      8.188  0.8997E-01  0.3440E+03
      8.304  0.5213E-02  0.3440E+03
      8.419  0.0000E+00  0.3440E+03
      8.534  0.0000E+00  0.3440E+03
      8.649  0.0000E+00  0.3440E+03
      8.765  0.0000E+00  0.3440E+03
      8.880  0.0000E+00  0.3440E+03
      8.995  0.0000E+00  0.3440E+03
      9.111  0.0000E+00  0.3440E+03
      9.226  0.0000E+00  0.3440E+03
      9.341  0.0000E+00  0.3440E+03
      9.456  0.0000E+00  0.3440E+03
      9.572  0.0000E+00  0.3440E+03
