       N       E                     dE             d eps       ncg     rms          rms(c)
RMM:   1     0.332842216518E+04    0.33284E+04   -0.74397E+04 86688   0.878E+02
RMM:   2     0.105498469917E+04   -0.22734E+04   -0.24417E+04 86688   0.253E+02
RMM:   3     0.899135449291E+02   -0.96507E+03   -0.10281E+04 86688   0.187E+02
RMM:   4    -0.343467186334E+03   -0.43338E+03   -0.36812E+03 86688   0.131E+02
RMM:   5    -0.451527611237E+03   -0.10806E+03   -0.98351E+02 86688   0.687E+01
RMM:   6    -0.479295156413E+03   -0.27768E+02   -0.25340E+02 86688   0.354E+01
RMM:   7    -0.486665010117E+03   -0.73699E+01   -0.70576E+01 86688   0.180E+01
RMM:   8    -0.488875195092E+03   -0.22102E+01   -0.20830E+01 86688   0.963E+00
RMM:   9    -0.489743421670E+03   -0.86823E+00   -0.85253E+00221692   0.511E+00
RMM:  10    -0.489863645556E+03   -0.12022E+00   -0.11336E+00235333   0.148E+00
RMM:  11    -0.489865909493E+03   -0.22639E-02   -0.38702E-02221792   0.317E-01
RMM:  12    -0.489866550148E+03   -0.64066E-03   -0.62847E-03222956   0.821E-02    0.397E+01
RMM:  13    -0.448545749627E+03    0.41321E+02   -0.14598E+02210831   0.243E+01    0.152E+01
RMM:  14    -0.447328352261E+03    0.12174E+01   -0.55085E+00218210   0.419E+00    0.957E+00
RMM:  15    -0.446844257713E+03    0.48409E+00   -0.16066E+00214585   0.352E+00    0.131E+00
RMM:  16    -0.446802820931E+03    0.41437E-01   -0.27044E-01221760   0.932E-01    0.508E-01
RMM:  17    -0.446812679036E+03   -0.98581E-02   -0.44502E-02208287   0.406E-01    0.329E-01
RMM:  18    -0.446809810947E+03    0.28681E-02   -0.91491E-03216619   0.216E-01    0.813E-02
RMM:  19    -0.446808976508E+03    0.83444E-03   -0.17828E-03217672   0.753E-02    0.352E-02
RMM:  20    -0.446808776752E+03    0.19976E-03   -0.49983E-04219115   0.360E-02    0.197E-02
RMM:  21    -0.446808749832E+03    0.26920E-04   -0.11999E-04220266   0.186E-02    0.118E-02
RMM:  22    -0.446808744014E+03    0.58177E-05   -0.28550E-05215873   0.997E-03    0.322E-03
RMM:  23    -0.446808743810E+03    0.20385E-06   -0.29038E-06172814   0.332E-03
   1 F= -.44986903E+03 E0= -.44986903E+03  d E =-.963594E-10
