  93  93   0   0
  0.1016658E+02  0.9814900E-09  0.9814900E-09  0.9814900E-09  0.5000000E-15
  1.000000000000000E-004
  CAR 
 ice                                     
      9.67420118    -24.96147397  301     -1.64000663      1.00000000
    -24.961  0.0000E+00  0.0000E+00
    -24.846  0.0000E+00  0.0000E+00
    -24.731  0.0000E+00  0.0000E+00
    -24.615  0.0000E+00  0.0000E+00
    -24.500  0.0000E+00  0.0000E+00
    -24.384  0.0000E+00  0.0000E+00
    -24.269  0.0000E+00  0.0000E+00
    -24.153  0.0000E+00  0.0000E+00
    -24.038  0.0000E+00  0.0000E+00
    -23.922  0.0000E+00  0.0000E+00
    -23.807  0.4748E-02  0.5482E-03
    -23.691  0.4849E-01  0.6146E-02
    -23.576  0.4746E+00  0.6094E-01
    -23.461  0.4117E+01  0.5363E+00
    -23.345  0.1810E+02  0.2626E+01
    -23.230  0.2226E+02  0.5195E+01
    -23.114  0.8589E+01  0.6187E+01
    -22.999  0.1337E+02  0.7730E+01
    -22.883  0.1940E+02  0.9980E+01
    -22.768  0.1800E+02  0.1206E+02
    -22.652  0.2091E+02  0.1447E+02
    -22.537  0.2071E+02  0.1687E+02
    -22.422  0.2656E+02  0.1994E+02
    -22.306  0.2572E+02  0.2291E+02
    -22.191  0.1930E+02  0.2514E+02
    -22.075  0.2135E+02  0.2761E+02
    -21.960  0.2326E+02  0.3030E+02
    -21.844  0.3227E+02  0.3403E+02
    -21.729  0.4140E+02  0.3881E+02
    -21.613  0.3601E+02  0.4297E+02
    -21.498  0.2176E+02  0.4549E+02
    -21.382  0.1379E+02  0.4709E+02
    -21.267  0.2667E+02  0.5017E+02
    -21.152  0.1622E+02  0.5205E+02
    -21.036  0.1097E+02  0.5332E+02
    -20.921  0.7948E+01  0.5424E+02
    -20.805  0.9517E+01  0.5534E+02
    -20.690  0.4922E+01  0.5591E+02
    -20.574  0.8342E+00  0.5601E+02
    -20.459  0.1263E+01  0.5615E+02
    -20.343  0.6568E+01  0.5691E+02
    -20.228  0.7609E+01  0.5779E+02
    -20.112  0.1827E+01  0.5800E+02
    -19.997  0.1906E+01  0.5822E+02
    -19.882  0.7762E+01  0.5912E+02
    -19.766  0.6555E+01  0.5988E+02
    -19.651  0.2693E+01  0.6019E+02
    -19.535  0.7581E+01  0.6106E+02
    -19.420  0.6712E+01  0.6184E+02
    -19.304  0.1242E+01  0.6198E+02
    -19.189  0.1341E+00  0.6200E+02
    -19.073  0.0000E+00  0.6200E+02
    -18.958  0.0000E+00  0.6200E+02
    -18.843  0.0000E+00  0.6200E+02
    -18.727  0.0000E+00  0.6200E+02
    -18.612  0.0000E+00  0.6200E+02
    -18.496  0.0000E+00  0.6200E+02
    -18.381  0.0000E+00  0.6200E+02
    -18.265  0.0000E+00  0.6200E+02
    -18.150  0.0000E+00  0.6200E+02
    -18.034  0.0000E+00  0.6200E+02
    -17.919  0.0000E+00  0.6200E+02
    -17.803  0.0000E+00  0.6200E+02
    -17.688  0.0000E+00  0.6200E+02
    -17.573  0.0000E+00  0.6200E+02
    -17.457  0.0000E+00  0.6200E+02
    -17.342  0.0000E+00  0.6200E+02
    -17.226  0.0000E+00  0.6200E+02
    -17.111  0.0000E+00  0.6200E+02
    -16.995  0.0000E+00  0.6200E+02
    -16.880  0.0000E+00  0.6200E+02
    -16.764  0.0000E+00  0.6200E+02
    -16.649  0.0000E+00  0.6200E+02
    -16.533  0.0000E+00  0.6200E+02
    -16.418  0.0000E+00  0.6200E+02
    -16.303  0.0000E+00  0.6200E+02
    -16.187  0.0000E+00  0.6200E+02
    -16.072  0.0000E+00  0.6200E+02
    -15.956  0.0000E+00  0.6200E+02
    -15.841  0.0000E+00  0.6200E+02
    -15.725  0.0000E+00  0.6200E+02
    -15.610  0.0000E+00  0.6200E+02
    -15.494  0.0000E+00  0.6200E+02
    -15.379  0.0000E+00  0.6200E+02
    -15.263  0.0000E+00  0.6200E+02
    -15.148  0.0000E+00  0.6200E+02
    -15.033  0.0000E+00  0.6200E+02
    -14.917  0.0000E+00  0.6200E+02
    -14.802  0.0000E+00  0.6200E+02
    -14.686  0.0000E+00  0.6200E+02
    -14.571  0.0000E+00  0.6200E+02
    -14.455  0.0000E+00  0.6200E+02
    -14.340  0.0000E+00  0.6200E+02
    -14.224  0.0000E+00  0.6200E+02
    -14.109  0.0000E+00  0.6200E+02
    -13.994  0.0000E+00  0.6200E+02
    -13.878  0.0000E+00  0.6200E+02
    -13.763  0.0000E+00  0.6200E+02
    -13.647  0.0000E+00  0.6200E+02
    -13.532  0.0000E+00  0.6200E+02
    -13.416  0.0000E+00  0.6200E+02
    -13.301  0.0000E+00  0.6200E+02
    -13.185  0.0000E+00  0.6200E+02
    -13.070  0.0000E+00  0.6200E+02
    -12.954  0.0000E+00  0.6200E+02
    -12.839  0.0000E+00  0.6200E+02
    -12.724  0.0000E+00  0.6200E+02
    -12.608  0.0000E+00  0.6200E+02
    -12.493  0.0000E+00  0.6200E+02
    -12.377  0.2254E-04  0.6200E+02
    -12.262  0.5750E-02  0.6200E+02
    -12.146  0.5215E-01  0.6201E+02
    -12.031  0.5089E+00  0.6207E+02
    -11.915  0.3842E+01  0.6251E+02
    -11.800  0.9143E+01  0.6356E+02
    -11.684  0.4706E+01  0.6411E+02
    -11.569  0.9454E+01  0.6520E+02
    -11.454  0.2052E+02  0.6757E+02
    -11.338  0.1511E+02  0.6932E+02
    -11.223  0.5135E+01  0.6991E+02
    -11.107  0.6086E+00  0.6999E+02
    -10.992  0.7472E-01  0.7000E+02
    -10.876  0.1222E+00  0.7002E+02
    -10.761  0.1137E+01  0.7015E+02
    -10.645  0.6405E+01  0.7089E+02
    -10.530  0.9251E+01  0.7195E+02
    -10.414  0.1075E+02  0.7320E+02
    -10.299  0.2194E+02  0.7573E+02
    -10.184  0.3877E+02  0.8021E+02
    -10.068  0.4135E+02  0.8498E+02
     -9.953  0.2620E+02  0.8801E+02
     -9.837  0.2137E+02  0.9048E+02
     -9.722  0.2105E+02  0.9292E+02
     -9.606  0.3194E+02  0.9661E+02
     -9.491  0.3059E+02  0.1001E+03
     -9.375  0.2505E+02  0.1030E+03
     -9.260  0.1588E+02  0.1049E+03
     -9.145  0.1978E+02  0.1072E+03
     -9.029  0.2270E+02  0.1098E+03
     -8.914  0.2350E+02  0.1125E+03
     -8.798  0.2856E+02  0.1158E+03
     -8.683  0.2068E+02  0.1182E+03
     -8.567  0.1217E+02  0.1196E+03
     -8.452  0.5486E+01  0.1202E+03
     -8.336  0.9109E+01  0.1213E+03
     -8.221  0.8353E+01  0.1223E+03
     -8.105  0.1028E+02  0.1235E+03
     -7.990  0.1207E+02  0.1249E+03
     -7.875  0.1817E+02  0.1269E+03
     -7.759  0.2046E+02  0.1293E+03
     -7.644  0.1425E+02  0.1310E+03
     -7.528  0.1482E+02  0.1327E+03
     -7.413  0.2271E+02  0.1353E+03
     -7.297  0.2907E+02  0.1387E+03
     -7.182  0.2738E+02  0.1418E+03
     -7.066  0.2245E+02  0.1444E+03
     -6.951  0.2543E+02  0.1474E+03
     -6.835  0.2778E+02  0.1506E+03
     -6.720  0.2379E+02  0.1533E+03
     -6.605  0.2078E+02  0.1557E+03
     -6.489  0.2046E+02  0.1581E+03
     -6.374  0.1824E+02  0.1602E+03
     -6.258  0.1815E+02  0.1623E+03
     -6.143  0.2494E+02  0.1652E+03
     -6.027  0.2830E+02  0.1684E+03
     -5.912  0.2160E+02  0.1709E+03
     -5.796  0.1772E+02  0.1730E+03
     -5.681  0.2010E+02  0.1753E+03
     -5.565  0.1776E+02  0.1774E+03
     -5.450  0.1279E+02  0.1789E+03
     -5.335  0.2256E+02  0.1815E+03
     -5.219  0.2407E+02  0.1842E+03
     -5.104  0.2450E+02  0.1871E+03
     -4.988  0.2079E+02  0.1895E+03
     -4.873  0.1809E+02  0.1916E+03
     -4.757  0.1764E+02  0.1936E+03
     -4.642  0.2397E+02  0.1964E+03
     -4.526  0.3229E+02  0.2001E+03
     -4.411  0.5345E+02  0.2063E+03
     -4.296  0.6843E+02  0.2142E+03
     -4.180  0.6171E+02  0.2213E+03
     -4.065  0.4868E+02  0.2269E+03
     -3.949  0.3244E+02  0.2307E+03
     -3.834  0.2502E+02  0.2336E+03
     -3.718  0.2823E+02  0.2369E+03
     -3.603  0.3162E+02  0.2405E+03
     -3.487  0.2046E+02  0.2429E+03
     -3.372  0.1340E+02  0.2444E+03
     -3.256  0.1030E+02  0.2456E+03
     -3.141  0.2997E+01  0.2460E+03
     -3.026  0.1579E+01  0.2462E+03
     -2.910  0.6726E+01  0.2469E+03
     -2.795  0.7441E+01  0.2478E+03
     -2.679  0.1563E+01  0.2480E+03
     -2.564  0.1727E+00  0.2480E+03
     -2.448  0.0000E+00  0.2480E+03
     -2.333  0.0000E+00  0.2480E+03
     -2.217  0.0000E+00  0.2480E+03
     -2.102  0.0000E+00  0.2480E+03
     -1.986  0.0000E+00  0.2480E+03
     -1.871  0.0000E+00  0.2480E+03
     -1.756  0.0000E+00  0.2480E+03
     -1.640  0.0000E+00  0.2480E+03
     -1.525  0.0000E+00  0.2480E+03
     -1.409  0.0000E+00  0.2480E+03
     -1.294  0.0000E+00  0.2480E+03
     -1.178  0.0000E+00  0.2480E+03
     -1.063  0.0000E+00  0.2480E+03
     -0.947  0.0000E+00  0.2480E+03
     -0.832  0.0000E+00  0.2480E+03
     -0.717  0.0000E+00  0.2480E+03
     -0.601  0.0000E+00  0.2480E+03
     -0.486  0.0000E+00  0.2480E+03
     -0.370  0.0000E+00  0.2480E+03
     -0.255  0.0000E+00  0.2480E+03
     -0.139  0.0000E+00  0.2480E+03
     -0.024  0.0000E+00  0.2480E+03
      0.092  0.0000E+00  0.2480E+03
      0.207  0.0000E+00  0.2480E+03
      0.323  0.5071E-04  0.2480E+03
      0.438  0.6422E-03  0.2480E+03
      0.553  0.6507E-02  0.2480E+03
      0.669  0.6065E-01  0.2480E+03
      0.784  0.3790E+00  0.2481E+03
      0.900  0.1071E+01  0.2482E+03
      1.015  0.1796E+01  0.2484E+03
      1.131  0.2556E+01  0.2487E+03
      1.246  0.3254E+01  0.2491E+03
      1.362  0.3328E+01  0.2494E+03
      1.477  0.3032E+01  0.2498E+03
      1.593  0.2919E+01  0.2501E+03
      1.708  0.3477E+01  0.2505E+03
      1.823  0.4386E+01  0.2510E+03
      1.939  0.4754E+01  0.2516E+03
      2.054  0.4807E+01  0.2521E+03
      2.170  0.5138E+01  0.2527E+03
      2.285  0.5880E+01  0.2534E+03
      2.401  0.6815E+01  0.2542E+03
      2.516  0.7723E+01  0.2551E+03
      2.632  0.8119E+01  0.2560E+03
      2.747  0.7593E+01  0.2569E+03
      2.863  0.7402E+01  0.2578E+03
      2.978  0.7734E+01  0.2587E+03
      3.093  0.8027E+01  0.2596E+03
      3.209  0.8317E+01  0.2605E+03
      3.324  0.9046E+01  0.2616E+03
      3.440  0.1007E+02  0.2628E+03
      3.555  0.1067E+02  0.2640E+03
      3.671  0.1111E+02  0.2653E+03
      3.786  0.1172E+02  0.2666E+03
      3.902  0.1277E+02  0.2681E+03
      4.017  0.1355E+02  0.2697E+03
      4.132  0.1320E+02  0.2712E+03
      4.248  0.1317E+02  0.2727E+03
      4.363  0.1415E+02  0.2744E+03
      4.479  0.1413E+02  0.2760E+03
      4.594  0.1391E+02  0.2776E+03
      4.710  0.1495E+02  0.2793E+03
      4.825  0.1638E+02  0.2812E+03
      4.941  0.1578E+02  0.2830E+03
      5.056  0.1580E+02  0.2849E+03
      5.172  0.1714E+02  0.2868E+03
      5.287  0.1880E+02  0.2890E+03
      5.402  0.1980E+02  0.2913E+03
      5.518  0.2048E+02  0.2937E+03
      5.633  0.2149E+02  0.2962E+03
      5.749  0.2271E+02  0.2988E+03
      5.864  0.2363E+02  0.3015E+03
      5.980  0.2417E+02  0.3043E+03
      6.095  0.2423E+02  0.3071E+03
      6.211  0.2529E+02  0.3100E+03
      6.326  0.2663E+02  0.3131E+03
      6.442  0.2748E+02  0.3163E+03
      6.557  0.2819E+02  0.3195E+03
      6.672  0.2778E+02  0.3228E+03
      6.788  0.2692E+02  0.3259E+03
      6.903  0.2503E+02  0.3288E+03
      7.019  0.2317E+02  0.3314E+03
      7.134  0.2165E+02  0.3339E+03
      7.250  0.1926E+02  0.3362E+03
      7.365  0.1724E+02  0.3382E+03
      7.481  0.1587E+02  0.3400E+03
      7.596  0.1378E+02  0.3416E+03
      7.712  0.1102E+02  0.3429E+03
      7.827  0.6640E+01  0.3436E+03
      7.942  0.2446E+01  0.3439E+03
      8.058  0.5079E+00  0.3440E+03
      8.173  0.7145E-01  0.3440E+03
      8.289  0.8444E-02  0.3440E+03
      8.404  0.6958E-03  0.3440E+03
      8.520  0.0000E+00  0.3440E+03
      8.635  0.0000E+00  0.3440E+03
      8.751  0.0000E+00  0.3440E+03
      8.866  0.0000E+00  0.3440E+03
      8.981  0.0000E+00  0.3440E+03
      9.097  0.0000E+00  0.3440E+03
      9.212  0.0000E+00  0.3440E+03
      9.328  0.0000E+00  0.3440E+03
      9.443  0.0000E+00  0.3440E+03
      9.559  0.0000E+00  0.3440E+03
      9.674  0.0000E+00  0.3440E+03
