Loading vasp/5.4.4-mpi-cuda
  Loading requirement: gcc/8.5.0 intel-compilers/19.0.4 cuda/10.1.1
    intel-mpi/2019.4
 running on   40 total cores
 distrk:  each k-point on   40 cores,    1 groups
 distr:  one band on   20 cores,    2 groups
 using from now: INCAR     
 vasp.5.4.4.18Apr17-6-g9f103f2a35 (build Dec 06 2019 17:20:26) complex          
  
 POSCAR found type information on POSCAR  O  H 
 POSCAR found :  2 types and      93 ions
 scaLAPACK will be used

 ----------------------------------------------------------------------------- 
|                                                                             |
|           W    W    AA    RRRRR   N    N  II  N    N   GGGG   !!!           |
|           W    W   A  A   R    R  NN   N  II  NN   N  G    G  !!!           |
|           W    W  A    A  R    R  N N  N  II  N N  N  G       !!!           |
|           W WW W  AAAAAA  RRRRR   N  N N  II  N  N N  G  GGG   !            |
|           WW  WW  A    A  R   R   N   NN  II  N   NN  G    G                |
|           W    W  A    A  R    R  N    N  II  N    N   GGGG   !!!           |
|                                                                             |
|      For optimal performance we recommend to set                            |
|        NCORE= 4 - approx SQRT( number of cores)                             |
|      NCORE specifies how many cores store one orbital (NPAR=cpu/NCORE).     |
|      This setting can  greatly improve the performance of VASP for DFT.     |
|      The default,   NCORE=1            might be grossly inefficient         |
|      on modern multi-core architectures or massively parallel machines.     |
|      Do your own testing !!!!                                               |
|      Unfortunately you need to use the default for GW and RPA calculations. |
|      (for HF NCORE is supported but not extensively tested yet)             |
|                                                                             |
 ----------------------------------------------------------------------------- 

 LDA part: xc-table for Pade appr. of Perdew
 POSCAR, INCAR and KPOINTS ok, starting setup
 FFT: planning ...
 WAVECAR not read
 WARNING: chargedensity file is incomplete
 WARNING: random wavefunctions but no delay for mixing, default for NELMDL
 entering main loop
       N       E                     dE             d eps       ncg     rms          rms(c)
RMM:   1     0.331722904349E+04    0.33172E+04   -0.74353E+04 86688   0.878E+02
RMM:   2     0.104962404443E+04   -0.22676E+04   -0.24334E+04 86688   0.253E+02
RMM:   3     0.860238383796E+02   -0.96360E+03   -0.10240E+04 86688   0.186E+02
RMM:   4    -0.344434111460E+03   -0.43046E+03   -0.36590E+03 86688   0.130E+02
RMM:   5    -0.451492953654E+03   -0.10706E+03   -0.97535E+02 86688   0.684E+01
RMM:   6    -0.479047491394E+03   -0.27555E+02   -0.25158E+02 86688   0.353E+01
RMM:   7    -0.486376267499E+03   -0.73288E+01   -0.70187E+01 86688   0.180E+01
RMM:   8    -0.488578349551E+03   -0.22021E+01   -0.20753E+01 86688   0.959E+00
RMM:   9    -0.489445471226E+03   -0.86712E+00   -0.85139E+00221724   0.509E+00
RMM:  10    -0.489566145484E+03   -0.12067E+00   -0.11367E+00235577   0.148E+00
RMM:  11    -0.489568382526E+03   -0.22370E-02   -0.38260E-02221798   0.313E-01
RMM:  12    -0.489569020593E+03   -0.63807E-03   -0.62576E-03223036   0.813E-02    0.396E+01
RMM:  13    -0.448485453754E+03    0.41084E+02   -0.14596E+02209325   0.242E+01    0.152E+01
RMM:  14    -0.447321646423E+03    0.11638E+01   -0.52635E+00218227   0.411E+00    0.959E+00
RMM:  15    -0.446862061726E+03    0.45958E+00   -0.15949E+00214504   0.354E+00    0.133E+00
RMM:  16    -0.446821397341E+03    0.40664E-01   -0.27308E-01221760   0.940E-01    0.501E-01
RMM:  17    -0.446832967374E+03   -0.11570E-01   -0.39824E-02207638   0.392E-01    0.300E-01
RMM:  18    -0.446831208809E+03    0.17586E-02   -0.63884E-03216669   0.183E-01    0.760E-02
RMM:  19    -0.446830717644E+03    0.49117E-03   -0.17417E-03218124   0.801E-02    0.456E-02
RMM:  20    -0.446830557638E+03    0.16001E-03   -0.46152E-04219745   0.384E-02    0.190E-02
RMM:  21    -0.446830528454E+03    0.29184E-04   -0.10076E-04221167   0.173E-02    0.104E-02
RMM:  22    -0.446830523029E+03    0.54245E-05   -0.21813E-05206406   0.787E-03    0.491E-03
RMM:  23    -0.446830523400E+03   -0.37084E-06   -0.13328E-05215318   0.729E-03    0.596E-03
RMM:  24    -0.446830522417E+03    0.98274E-06   -0.23048E-06158260   0.335E-03
   1 F= -.44989101E+03 E0= -.44989101E+03  d E =-.277204E-10
