  72  72   0   0
  0.1278396E+03  0.1469770E-08  0.1469770E-08  0.4920040E-08  0.5000000E-15
  1.000000000000000E-004
  CAR 
 ice                                     
      1.81414739    -26.75584035  301     -5.32832629      1.00000000
    -26.756  0.0000E+00  0.0000E+00
    -26.661  0.0000E+00  0.0000E+00
    -26.565  0.0000E+00  0.0000E+00
    -26.470  0.0000E+00  0.0000E+00
    -26.375  0.0000E+00  0.0000E+00
    -26.280  0.0000E+00  0.0000E+00
    -26.184  0.0000E+00  0.0000E+00
    -26.089  0.0000E+00  0.0000E+00
    -25.994  0.0000E+00  0.0000E+00
    -25.899  0.7673E-06  0.7308E-07
    -25.804  0.1446E-04  0.1450E-05
    -25.708  0.9856E-04  0.1084E-04
    -25.613  0.6437E-03  0.7213E-04
    -25.518  0.3814E-02  0.4354E-03
    -25.423  0.1505E-01  0.1869E-02
    -25.327  0.2911E-01  0.4641E-02
    -25.232  0.3597E-01  0.8067E-02
    -25.137  0.4034E-01  0.1191E-01
    -25.042  0.5292E-01  0.1695E-01
    -24.946  0.4784E-01  0.2151E-01
    -24.851  0.2060E-01  0.2347E-01
    -24.756  0.4759E-02  0.2393E-01
    -24.661  0.1487E-02  0.2408E-01
    -24.565  0.4791E-02  0.2454E-01
    -24.470  0.2042E-01  0.2649E-01
    -24.375  0.4614E-01  0.3088E-01
    -24.280  0.5032E-01  0.3567E-01
    -24.185  0.3705E-01  0.3920E-01
    -24.089  0.3208E-01  0.4226E-01
    -23.994  0.2911E-01  0.4503E-01
    -23.899  0.2080E-01  0.4702E-01
    -23.804  0.8236E-02  0.4781E-01
    -23.708  0.1685E-02  0.4797E-01
    -23.613  0.2547E-03  0.4800E-01
    -23.518  0.1499E-04  0.4800E-01
    -23.423  0.0000E+00  0.4800E-01
    -23.327  0.0000E+00  0.4800E-01
    -23.232  0.0000E+00  0.4800E-01
    -23.137  0.0000E+00  0.4800E-01
    -23.042  0.0000E+00  0.4800E-01
    -22.947  0.0000E+00  0.4800E-01
    -22.851  0.0000E+00  0.4800E-01
    -22.756  0.0000E+00  0.4800E-01
    -22.661  0.0000E+00  0.4800E-01
    -22.566  0.0000E+00  0.4800E-01
    -22.470  0.0000E+00  0.4800E-01
    -22.375  0.0000E+00  0.4800E-01
    -22.280  0.0000E+00  0.4800E-01
    -22.185  0.0000E+00  0.4800E-01
    -22.089  0.0000E+00  0.4800E-01
    -21.994  0.0000E+00  0.4800E-01
    -21.899  0.0000E+00  0.4800E-01
    -21.804  0.0000E+00  0.4800E-01
    -21.708  0.0000E+00  0.4800E-01
    -21.613  0.0000E+00  0.4800E-01
    -21.518  0.0000E+00  0.4800E-01
    -21.423  0.0000E+00  0.4800E-01
    -21.328  0.0000E+00  0.4800E-01
    -21.232  0.0000E+00  0.4800E-01
    -21.137  0.0000E+00  0.4800E-01
    -21.042  0.0000E+00  0.4800E-01
    -20.947  0.0000E+00  0.4800E-01
    -20.851  0.0000E+00  0.4800E-01
    -20.756  0.0000E+00  0.4800E-01
    -20.661  0.0000E+00  0.4800E-01
    -20.566  0.0000E+00  0.4800E-01
    -20.470  0.0000E+00  0.4800E-01
    -20.375  0.0000E+00  0.4800E-01
    -20.280  0.0000E+00  0.4800E-01
    -20.185  0.0000E+00  0.4800E-01
    -20.090  0.0000E+00  0.4800E-01
    -19.994  0.0000E+00  0.4800E-01
    -19.899  0.0000E+00  0.4800E-01
    -19.804  0.0000E+00  0.4800E-01
    -19.709  0.0000E+00  0.4800E-01
    -19.613  0.0000E+00  0.4800E-01
    -19.518  0.0000E+00  0.4800E-01
    -19.423  0.0000E+00  0.4800E-01
    -19.328  0.0000E+00  0.4800E-01
    -19.232  0.0000E+00  0.4800E-01
    -19.137  0.0000E+00  0.4800E-01
    -19.042  0.0000E+00  0.4800E-01
    -18.947  0.0000E+00  0.4800E-01
    -18.851  0.0000E+00  0.4800E-01
    -18.756  0.0000E+00  0.4800E-01
    -18.661  0.0000E+00  0.4800E-01
    -18.566  0.0000E+00  0.4800E-01
    -18.471  0.0000E+00  0.4800E-01
    -18.375  0.0000E+00  0.4800E-01
    -18.280  0.0000E+00  0.4800E-01
    -18.185  0.0000E+00  0.4800E-01
    -18.090  0.0000E+00  0.4800E-01
    -17.994  0.0000E+00  0.4800E-01
    -17.899  0.0000E+00  0.4800E-01
    -17.804  0.0000E+00  0.4800E-01
    -17.709  0.0000E+00  0.4800E-01
    -17.613  0.0000E+00  0.4800E-01
    -17.518  0.0000E+00  0.4800E-01
    -17.423  0.0000E+00  0.4800E-01
    -17.328  0.0000E+00  0.4800E-01
    -17.233  0.0000E+00  0.4800E-01
    -17.137  0.0000E+00  0.4800E-01
    -17.042  0.0000E+00  0.4800E-01
    -16.947  0.0000E+00  0.4800E-01
    -16.852  0.0000E+00  0.4800E-01
    -16.756  0.0000E+00  0.4800E-01
    -16.661  0.0000E+00  0.4800E-01
    -16.566  0.0000E+00  0.4800E-01
    -16.471  0.0000E+00  0.4800E-01
    -16.375  0.0000E+00  0.4800E-01
    -16.280  0.0000E+00  0.4800E-01
    -16.185  0.0000E+00  0.4800E-01
    -16.090  0.0000E+00  0.4800E-01
    -15.994  0.0000E+00  0.4800E-01
    -15.899  0.0000E+00  0.4800E-01
    -15.804  0.0000E+00  0.4800E-01
    -15.709  0.0000E+00  0.4800E-01
    -15.614  0.0000E+00  0.4800E-01
    -15.518  0.0000E+00  0.4800E-01
    -15.423  0.0000E+00  0.4800E-01
    -15.328  0.0000E+00  0.4800E-01
    -15.233  0.0000E+00  0.4800E-01
    -15.137  0.0000E+00  0.4800E-01
    -15.042  0.0000E+00  0.4800E-01
    -14.947  0.0000E+00  0.4800E-01
    -14.852  0.0000E+00  0.4800E-01
    -14.756  0.0000E+00  0.4800E-01
    -14.661  0.0000E+00  0.4800E-01
    -14.566  0.0000E+00  0.4800E-01
    -14.471  0.0000E+00  0.4800E-01
    -14.376  0.0000E+00  0.4800E-01
    -14.280  0.0000E+00  0.4800E-01
    -14.185  0.0000E+00  0.4800E-01
    -14.090  0.0000E+00  0.4800E-01
    -13.995  0.0000E+00  0.4800E-01
    -13.899  0.0000E+00  0.4800E-01
    -13.804  0.0000E+00  0.4800E-01
    -13.709  0.0000E+00  0.4800E-01
    -13.614  0.0000E+00  0.4800E-01
    -13.518  0.1666E-04  0.4800E-01
    -13.423  0.1102E-03  0.4801E-01
    -13.328  0.7221E-03  0.4808E-01
    -13.233  0.4706E-02  0.4853E-01
    -13.137  0.2631E-01  0.5103E-01
    -13.042  0.8097E-01  0.5875E-01
    -12.947  0.8938E-01  0.6726E-01
    -12.852  0.4041E-01  0.7111E-01
    -12.757  0.1387E-01  0.7243E-01
    -12.661  0.2599E-01  0.7491E-01
    -12.566  0.6719E-01  0.8132E-01
    -12.471  0.8920E-01  0.8982E-01
    -12.376  0.5030E-01  0.9461E-01
    -12.280  0.1223E-01  0.9577E-01
    -12.185  0.1994E-02  0.9597E-01
    -12.090  0.1934E-03  0.9600E-01
    -11.995  0.0000E+00  0.9600E-01
    -11.899  0.0000E+00  0.9600E-01
    -11.804  0.0000E+00  0.9600E-01
    -11.709  0.0000E+00  0.9600E-01
    -11.614  0.0000E+00  0.9600E-01
    -11.519  0.0000E+00  0.9600E-01
    -11.423  0.5299E-06  0.9600E-01
    -11.328  0.3027E-05  0.9600E-01
    -11.233  0.2276E-04  0.9600E-01
    -11.138  0.1464E-03  0.9602E-01
    -11.042  0.8354E-03  0.9610E-01
    -10.947  0.2781E-02  0.9636E-01
    -10.852  0.5367E-02  0.9687E-01
    -10.757  0.1253E-01  0.9807E-01
    -10.661  0.1176E-01  0.9919E-01
    -10.566  0.5700E-02  0.9973E-01
    -10.471  0.1136E-01  0.1008E+00
    -10.376  0.1897E-01  0.1026E+00
    -10.280  0.1822E-01  0.1044E+00
    -10.185  0.1203E-01  0.1055E+00
    -10.090  0.1445E-01  0.1069E+00
     -9.995  0.2987E-01  0.1097E+00
     -9.900  0.2603E-01  0.1122E+00
     -9.804  0.2688E-01  0.1148E+00
     -9.709  0.2717E-01  0.1174E+00
     -9.614  0.1435E-01  0.1187E+00
     -9.519  0.6215E-02  0.1193E+00
     -9.423  0.4974E-02  0.1198E+00
     -9.328  0.1813E-02  0.1200E+00
     -9.233  0.5973E-03  0.1200E+00
     -9.138  0.1645E-02  0.1202E+00
     -9.042  0.5049E-02  0.1207E+00
     -8.947  0.7853E-02  0.1214E+00
     -8.852  0.1866E-01  0.1232E+00
     -8.757  0.3145E-01  0.1262E+00
     -8.662  0.3109E-01  0.1291E+00
     -8.566  0.3359E-01  0.1323E+00
     -8.471  0.2154E-01  0.1344E+00
     -8.376  0.1663E-01  0.1360E+00
     -8.281  0.2176E-01  0.1381E+00
     -8.185  0.1811E-01  0.1398E+00
     -8.090  0.8454E-02  0.1406E+00
     -7.995  0.1016E-01  0.1416E+00
     -7.900  0.1391E-01  0.1429E+00
     -7.804  0.6353E-02  0.1435E+00
     -7.709  0.3327E-02  0.1438E+00
     -7.614  0.1720E-02  0.1440E+00
     -7.519  0.1484E-02  0.1441E+00
     -7.423  0.7452E-02  0.1448E+00
     -7.328  0.3574E-01  0.1482E+00
     -7.233  0.8893E-01  0.1567E+00
     -7.138  0.8374E-01  0.1647E+00
     -7.043  0.2905E-01  0.1675E+00
     -6.947  0.8009E-02  0.1682E+00
     -6.852  0.1599E-01  0.1698E+00
     -6.757  0.5158E-01  0.1747E+00
     -6.662  0.8714E-01  0.1830E+00
     -6.566  0.6968E-01  0.1896E+00
     -6.471  0.2082E-01  0.1916E+00
     -6.376  0.3574E-02  0.1919E+00
     -6.281  0.5038E-03  0.1920E+00
     -6.185  0.0000E+00  0.1920E+00
     -6.090  0.0000E+00  0.1920E+00
     -5.995  0.0000E+00  0.1920E+00
     -5.900  0.0000E+00  0.1920E+00
     -5.805  0.0000E+00  0.1920E+00
     -5.709  0.0000E+00  0.1920E+00
     -5.614  0.0000E+00  0.1920E+00
     -5.519  0.0000E+00  0.1920E+00
     -5.424  0.0000E+00  0.1920E+00
     -5.328  0.0000E+00  0.1920E+00
     -5.233  0.0000E+00  0.1920E+00
     -5.138  0.0000E+00  0.1920E+00
     -5.043  0.0000E+00  0.1920E+00
     -4.947  0.0000E+00  0.1920E+00
     -4.852  0.0000E+00  0.1920E+00
     -4.757  0.0000E+00  0.1920E+00
     -4.662  0.0000E+00  0.1920E+00
     -4.566  0.0000E+00  0.1920E+00
     -4.471  0.0000E+00  0.1920E+00
     -4.376  0.0000E+00  0.1920E+00
     -4.281  0.0000E+00  0.1920E+00
     -4.186  0.0000E+00  0.1920E+00
     -4.090  0.0000E+00  0.1920E+00
     -3.995  0.0000E+00  0.1920E+00
     -3.900  0.0000E+00  0.1920E+00
     -3.805  0.0000E+00  0.1920E+00
     -3.709  0.0000E+00  0.1920E+00
     -3.614  0.0000E+00  0.1920E+00
     -3.519  0.0000E+00  0.1920E+00
     -3.424  0.0000E+00  0.1920E+00
     -3.328  0.0000E+00  0.1920E+00
     -3.233  0.0000E+00  0.1920E+00
     -3.138  0.0000E+00  0.1920E+00
     -3.043  0.0000E+00  0.1920E+00
     -2.948  0.0000E+00  0.1920E+00
     -2.852  0.0000E+00  0.1920E+00
     -2.757  0.6612E-06  0.1920E+00
     -2.662  0.3777E-05  0.1920E+00
     -2.567  0.2523E-04  0.1920E+00
     -2.471  0.1720E-03  0.1920E+00
     -2.376  0.9276E-03  0.1921E+00
     -2.281  0.2576E-02  0.1924E+00
     -2.186  0.3536E-02  0.1927E+00
     -2.090  0.9203E-02  0.1936E+00
     -1.995  0.1366E-01  0.1949E+00
     -1.900  0.5509E-02  0.1954E+00
     -1.805  0.1452E-02  0.1955E+00
     -1.709  0.2798E-02  0.1958E+00
     -1.614  0.1084E-01  0.1968E+00
     -1.519  0.1676E-01  0.1984E+00
     -1.424  0.1518E-01  0.1999E+00
     -1.329  0.2066E-01  0.2018E+00
     -1.233  0.2511E-01  0.2042E+00
     -1.138  0.1467E-01  0.2056E+00
     -1.043  0.1455E-01  0.2070E+00
     -0.948  0.1622E-01  0.2086E+00
     -0.852  0.1963E-01  0.2104E+00
     -0.757  0.3856E-01  0.2141E+00
     -0.662  0.5057E-01  0.2189E+00
     -0.567  0.5016E-01  0.2237E+00
     -0.471  0.3242E-01  0.2268E+00
     -0.376  0.2555E-01  0.2292E+00
     -0.281  0.3881E-01  0.2329E+00
     -0.186  0.4052E-01  0.2368E+00
     -0.091  0.2739E-01  0.2394E+00
      0.005  0.2616E-01  0.2419E+00
      0.100  0.4627E-01  0.2463E+00
      0.195  0.5278E-01  0.2513E+00
      0.290  0.5521E-01  0.2566E+00
      0.386  0.6006E-01  0.2623E+00
      0.481  0.3586E-01  0.2657E+00
      0.576  0.1722E-01  0.2674E+00
      0.671  0.5370E-02  0.2679E+00
      0.767  0.8304E-03  0.2680E+00
      0.862  0.1284E-03  0.2680E+00
      0.957  0.0000E+00  0.2680E+00
      1.052  0.0000E+00  0.2680E+00
      1.148  0.0000E+00  0.2680E+00
      1.243  0.0000E+00  0.2680E+00
      1.338  0.0000E+00  0.2680E+00
      1.433  0.0000E+00  0.2680E+00
      1.528  0.0000E+00  0.2680E+00
      1.624  0.0000E+00  0.2680E+00
      1.719  0.0000E+00  0.2680E+00
      1.814  0.0000E+00  0.2680E+00
