Loading vasp/5.4.4-mpi-cuda
  Loading requirement: gcc/8.5.0 intel-compilers/19.0.4 cuda/10.1.1
    intel-mpi/2019.4
 running on   40 total cores
 distrk:  each k-point on   40 cores,    1 groups
 distr:  one band on   20 cores,    2 groups
 using from now: INCAR     
 vasp.5.4.4.18Apr17-6-g9f103f2a35 (build Dec 06 2019 17:20:26) complex          
  
 POSCAR found type information on POSCAR  H  O 
 POSCAR found :  2 types and      72 ions
 scaLAPACK will be used

 ----------------------------------------------------------------------------- 
|                                                                             |
|           W    W    AA    RRRRR   N    N  II  N    N   GGGG   !!!           |
|           W    W   A  A   R    R  NN   N  II  NN   N  G    G  !!!           |
|           W    W  A    A  R    R  N N  N  II  N N  N  G       !!!           |
|           W WW W  AAAAAA  RRRRR   N  N N  II  N  N N  G  GGG   !            |
|           WW  WW  A    A  R   R   N   NN  II  N   NN  G    G                |
|           W    W  A    A  R    R  N    N  II  N    N   GGGG   !!!           |
|                                                                             |
|      For optimal performance we recommend to set                            |
|        NCORE= 4 - approx SQRT( number of cores)                             |
|      NCORE specifies how many cores store one orbital (NPAR=cpu/NCORE).     |
|      This setting can  greatly improve the performance of VASP for DFT.     |
|      The default,   NCORE=1            might be grossly inefficient         |
|      on modern multi-core architectures or massively parallel machines.     |
|      Do your own testing !!!!                                               |
|      Unfortunately you need to use the default for GW and RPA calculations. |
|      (for HF NCORE is supported but not extensively tested yet)             |
|                                                                             |
 ----------------------------------------------------------------------------- 

 LDA part: xc-table for Pade appr. of Perdew
 POSCAR, INCAR and KPOINTS ok, starting setup
 FFT: planning ...
 WAVECAR not read
 WARNING: chargedensity file is incomplete
 WARNING: random wavefunctions but no delay for mixing, default for NELMDL
 entering main loop
       N       E                     dE             d eps       ncg     rms          rms(c)
RMM:   1     0.327297349218E+04    0.32730E+04   -0.28221E+04   268   0.601E+02
RMM:   2     0.204697683491E+04   -0.12260E+04   -0.14023E+04   268   0.143E+02
RMM:   3     0.166458149408E+04   -0.38240E+03   -0.88885E+03   268   0.141E+02
RMM:   4     0.916871185283E+03   -0.74771E+03   -0.72279E+03   268   0.146E+02
RMM:   5     0.351440994276E+03   -0.56543E+03   -0.54317E+03   268   0.141E+02
RMM:   6     0.269442210639E+02   -0.32450E+03   -0.29528E+03   268   0.110E+02
RMM:   7    -0.200593800497E+03   -0.22754E+03   -0.19326E+03   268   0.766E+01
RMM:   8    -0.322449589312E+03   -0.12186E+03   -0.10151E+03   268   0.487E+01
RMM:   9    -0.386201871885E+03   -0.63752E+02   -0.49364E+02   541   0.284E+01
RMM:  10    -0.389318798794E+03   -0.31169E+01   -0.33151E+01   556   0.863E+00
RMM:  11    -0.389512387427E+03   -0.19359E+00   -0.20408E+00   555   0.203E+00
RMM:  12    -0.389529848803E+03   -0.17461E-01   -0.19750E-01   577   0.501E-01    0.359E+01
RMM:  13    -0.352866779654E+03    0.36663E+02   -0.14216E+02   536   0.266E+01    0.137E+01
RMM:  14    -0.350703461092E+03    0.21633E+01   -0.94474E+00   537   0.551E+00    0.888E+00
RMM:  15    -0.349184555234E+03    0.15189E+01   -0.25520E+00   536   0.424E+00    0.152E+00
RMM:  16    -0.348986428515E+03    0.19813E+00   -0.72674E-01   537   0.149E+00    0.765E-01
RMM:  17    -0.348892718060E+03    0.93710E-01   -0.27678E-01   564   0.806E-01    0.921E-01
RMM:  18    -0.348872094435E+03    0.20624E-01   -0.91625E-02   536   0.704E-01    0.217E-01
RMM:  19    -0.348891132614E+03   -0.19038E-01   -0.31437E-02   536   0.351E-01    0.136E-01
RMM:  20    -0.348907012417E+03   -0.15880E-01   -0.67127E-03   540   0.134E-01    0.964E-02
RMM:  21    -0.348917171292E+03   -0.10159E-01   -0.48541E-03   536   0.991E-02    0.552E-02
RMM:  22    -0.348924148272E+03   -0.69770E-02   -0.22165E-03   563   0.833E-02    0.546E-02
RMM:  23    -0.348928558120E+03   -0.44098E-02   -0.46173E-04   536   0.408E-02    0.263E-02
RMM:  24    -0.348930706354E+03   -0.21482E-02   -0.36001E-04   536   0.329E-02    0.127E-02
RMM:  25    -0.348931374546E+03   -0.66819E-03   -0.46206E-05   516   0.111E-02    0.868E-03
RMM:  26    -0.348931934410E+03   -0.55986E-03   -0.33492E-05   512   0.961E-03    0.716E-03
RMM:  27    -0.348932002140E+03   -0.67730E-04   -0.14504E-05   513   0.709E-03    0.701E-03
RMM:  28    -0.348932070735E+03   -0.68595E-04   -0.30295E-06   396   0.345E-03    0.547E-03
RMM:  29    -0.348932076673E+03   -0.59379E-05   -0.29547E-06   418   0.348E-03    0.532E-03
RMM:  30    -0.348932102447E+03   -0.25774E-04   -0.42019E-07   344   0.212E-03    0.508E-03
RMM:  31    -0.348932100690E+03    0.17577E-05   -0.19667E-07   344   0.126E-03    0.502E-03
RMM:  32    -0.348932106977E+03   -0.62877E-05   -0.69544E-08   275   0.686E-04    0.502E-03
RMM:  33    -0.348932109631E+03   -0.26541E-05   -0.24175E-08   198   0.483E-04    0.502E-03
RMM:  34    -0.348932109870E+03   -0.23892E-06    0.00000E+00   152   0.417E-04
   1 F= -.35024154E+03 E0= -.35024154E+03  d E =-.350242E+03
 curvature:   0.00 expect dE= 0.000E+00 dE for cont linesearch  0.000E+00
 trial: gam= 0.00000 g(F)=  0.107E+02 g(S)=  0.000E+00 ort = 0.000E+00 (trialstep = 0.100E+01)
 search vector abs. value=  0.107E+02
 bond charge predicted
       N       E                     dE             d eps       ncg     rms          rms(c)
RMM:   1    -0.356707237400E+03   -0.77751E+01   -0.22215E+03   536   0.124E+02    0.845E+00
RMM:   2    -0.340936620048E+03    0.15771E+02   -0.31723E+01   568   0.119E+01    0.125E+01
RMM:   3    -0.350132137996E+03   -0.91955E+01   -0.27964E+01   536   0.111E+01    0.230E+01
RMM:   4    -0.338625814235E+03    0.11506E+02   -0.50855E+01   536   0.153E+01    0.919E+00
RMM:   5    -0.338279517439E+03    0.34630E+00   -0.21894E+01   536   0.983E+00    0.874E+00
RMM:   6    -0.336597933928E+03    0.16816E+01   -0.72999E+00   536   0.553E+00    0.243E+00
RMM:   7    -0.336733446041E+03   -0.13551E+00   -0.80766E-01   608   0.151E+00    0.135E+00
RMM:   8    -0.336703038572E+03    0.30407E-01   -0.43488E-01   536   0.130E+00    0.764E-01
RMM:   9    -0.336729146630E+03   -0.26108E-01   -0.27397E-01   536   0.976E-01    0.664E-01
RMM:  10    -0.336735772271E+03   -0.66256E-02   -0.27215E-02   536   0.374E-01    0.258E-01
RMM:  11    -0.336757913002E+03   -0.22141E-01   -0.38793E-02   545   0.379E-01    0.233E-01
RMM:  12    -0.336767812692E+03   -0.98997E-02   -0.48978E-03   536   0.153E-01    0.199E-01
RMM:  13    -0.336769764694E+03   -0.19520E-02   -0.58925E-03   551   0.149E-01    0.394E-02
RMM:  14    -0.336771835732E+03   -0.20710E-02   -0.44644E-04   545   0.400E-02    0.358E-02
RMM:  15    -0.336773753386E+03   -0.19177E-02   -0.52388E-04   536   0.396E-02    0.309E-02
RMM:  16    -0.336774015482E+03   -0.26210E-03   -0.10756E-04   537   0.212E-02    0.163E-02
RMM:  17    -0.336774186932E+03   -0.17145E-03   -0.98234E-05   565   0.168E-02    0.120E-02
RMM:  18    -0.336774228896E+03   -0.41964E-04   -0.37721E-06   425   0.427E-03    0.934E-03
RMM:  19    -0.336774266897E+03   -0.38001E-04   -0.16575E-05   528   0.828E-03    0.581E-03
RMM:  20    -0.336774259190E+03    0.77069E-05   -0.13446E-06   344   0.278E-03    0.538E-03
RMM:  21    -0.336774265911E+03   -0.67209E-05   -0.14236E-06   344   0.262E-03    0.511E-03
RMM:  22    -0.336774267417E+03   -0.15065E-05   -0.18667E-07   344   0.106E-03    0.505E-03
RMM:  23    -0.336774267772E+03   -0.35484E-06   -0.36144E-08   221   0.573E-04
   2 F= -.33810336E+03 E0= -.33810336E+03  d E =0.121382E+02
 trial-energy change:   12.138181  1 .order   14.340039  -10.721117   39.401196
 step:   0.2653(harm=  0.2139)  dis= 0.02669  next Energy=  -351.704647 (dE=-0.146E+01)
 bond charge predicted
       N       E                     dE             d eps       ncg     rms          rms(c)
RMM:   1    -0.357154699211E+03   -0.20380E+02   -0.11609E+03   536   0.898E+01    0.851E+00
RMM:   2    -0.350828887574E+03    0.63258E+01   -0.25192E+01   536   0.112E+01    0.481E+00
RMM:   3    -0.350321661496E+03    0.50723E+00   -0.20695E+00   536   0.294E+00    0.210E+00
RMM:   4    -0.350275125625E+03    0.46536E-01   -0.12970E+00   536   0.235E+00    0.770E-01
RMM:   5    -0.350274455503E+03    0.67012E-03   -0.20926E-01   539   0.983E-01    0.652E-01
RMM:   6    -0.350268184922E+03    0.62706E-02   -0.19012E-02   540   0.310E-01    0.305E-01
RMM:   7    -0.350266864305E+03    0.13206E-02   -0.17499E-02   536   0.257E-01    0.667E-02
RMM:   8    -0.350267239882E+03   -0.37558E-03   -0.81288E-04   561   0.567E-02    0.518E-02
RMM:   9    -0.350267215466E+03    0.24416E-04   -0.43395E-04   536   0.432E-02    0.245E-02
RMM:  10    -0.350267294916E+03   -0.79450E-04   -0.41123E-05   548   0.136E-02    0.131E-02
RMM:  11    -0.350267325464E+03   -0.30548E-04   -0.32356E-05   512   0.102E-02    0.644E-03
RMM:  12    -0.350267325644E+03   -0.18057E-06   -0.11552E-05   489   0.623E-03    0.852E-03
RMM:  13    -0.350267312019E+03    0.13625E-04   -0.97024E-06   512   0.643E-03    0.524E-03
RMM:  14    -0.350267303840E+03    0.81795E-05   -0.49134E-07   344   0.166E-03    0.526E-03
RMM:  15    -0.350267304646E+03   -0.80651E-06   -0.12931E-07   319   0.865E-04
   3 F= -.35157779E+03 E0= -.35157779E+03  d E =-.133625E+01
 curvature:  -0.11 expect dE=-0.145E+00 dE for cont linesearch -0.371E-02
 ZBRENT: interpolating
 opt :   0.2510  next Energy=  -351.582168 (dE=-0.134E+01)
 bond charge predicted
       N       E                     dE             d eps       ncg     rms          rms(c)
RMM:   1    -0.350272382266E+03   -0.50784E-02   -0.42478E-01   536   0.173E+00    0.133E-01
RMM:   2    -0.350271787720E+03    0.59455E-03   -0.47475E-03   543   0.150E-01    0.689E-02
RMM:   3    -0.350271876732E+03   -0.89012E-04   -0.47888E-04   601   0.377E-02    0.809E-02
RMM:   4    -0.350271725741E+03    0.15099E-03   -0.79351E-04   536   0.582E-02    0.139E-02
RMM:   5    -0.350271768327E+03   -0.42586E-04   -0.76365E-05   536   0.170E-02    0.872E-03
RMM:   6    -0.350271766275E+03    0.20515E-05   -0.44244E-06   453   0.470E-03    0.591E-03
RMM:   7    -0.350271763283E+03    0.29928E-05   -0.15512E-06   344   0.265E-03    0.527E-03
RMM:   8    -0.350271765928E+03   -0.26454E-05   -0.47415E-07   344   0.160E-03    0.513E-03
RMM:   9    -0.350271759620E+03    0.63084E-05   -0.16572E-07   344   0.106E-03    0.511E-03
RMM:  10    -0.350271756575E+03    0.30449E-05   -0.64722E-08   243   0.561E-04    0.510E-03
RMM:  11    -0.350271755538E+03    0.10362E-05   -0.42855E-09   163   0.449E-04    0.510E-03
RMM:  12    -0.350271752658E+03    0.28809E-05   -0.11401E-08   178   0.506E-04    0.508E-03
RMM:  13    -0.350271750997E+03    0.16607E-05   -0.23699E-10   153   0.511E-04    0.508E-03
RMM:  14    -0.350271751589E+03   -0.59236E-06   -0.91910E-08   317   0.722E-04
   4 F= -.35158215E+03 E0= -.35158215E+03  d E =-.134061E+01
 curvature:  -0.13 expect dE=-0.144E+00 dE for cont linesearch -0.609E-08
 trial: gam= 0.10686 g(F)=  0.115E+01 g(S)=  0.000E+00 ort = 0.722E-03 (trialstep = 0.850E+00)
 search vector abs. value=  0.127E+01
 bond charge predicted
       N       E                     dE             d eps       ncg     rms          rms(c)
RMM:   1    -0.351046781424E+03   -0.77503E+00   -0.13985E+02   536   0.315E+01    0.229E+00
RMM:   2    -0.350651562685E+03    0.39522E+00   -0.12914E+00   536   0.242E+00    0.136E+00
RMM:   3    -0.350850995343E+03   -0.19943E+00   -0.17755E+00   536   0.285E+00    0.246E+00
RMM:   4    -0.350667792376E+03    0.18320E+00   -0.56349E-01   536   0.159E+00    0.874E-01
RMM:   5    -0.350683241243E+03   -0.15449E-01   -0.36203E-01   536   0.122E+00    0.723E-01
RMM:   6    -0.350684376598E+03   -0.11354E-02   -0.13468E-02   536   0.255E-01    0.537E-01
RMM:   7    -0.350688617426E+03   -0.42408E-02   -0.60651E-02   536   0.474E-01    0.722E-02
RMM:   8    -0.350696130499E+03   -0.75131E-02   -0.38590E-03   587   0.116E-01    0.152E-01
RMM:   9    -0.350698578443E+03   -0.24479E-02   -0.48826E-03   536   0.134E-01    0.107E-01
RMM:  10    -0.350698996928E+03   -0.41848E-03   -0.10574E-03   536   0.708E-02    0.560E-02
RMM:  11    -0.350699409204E+03   -0.41228E-03   -0.24988E-04   554   0.319E-02    0.219E-02
RMM:  12    -0.350699757263E+03   -0.34806E-03   -0.13959E-04   562   0.216E-02    0.153E-02
RMM:  13    -0.350699943013E+03   -0.18575E-03   -0.66617E-05   536   0.171E-02    0.797E-03
RMM:  14    -0.350700048923E+03   -0.10591E-03   -0.64840E-06   488   0.594E-03    0.552E-03
RMM:  15    -0.350700065119E+03   -0.16196E-04   -0.40184E-06   432   0.442E-03    0.591E-03
RMM:  16    -0.350700065308E+03   -0.18884E-06   -0.13475E-06   344   0.259E-03
   5 F= -.35200814E+03 E0= -.35200814E+03  d E =-.425990E+00
 trial-energy change:   -0.425990  1 .order   -0.435469   -0.974706    0.103768
 step:   0.7643(harm=  0.7684)  dis= 0.03215  next Energy=  -352.013392 (dE=-0.431E+00)
 bond charge predicted
       N       E                     dE             d eps       ncg     rms          rms(c)
RMM:   1    -0.350707505110E+03   -0.74400E-02   -0.14235E+00   536   0.321E+00    0.203E-01
RMM:   2    -0.350704967347E+03    0.25378E-02   -0.10675E-02   536   0.233E-01    0.796E-02
RMM:   3    -0.350705097114E+03   -0.12977E-03   -0.19691E-03   558   0.768E-02    0.232E-02
RMM:   4    -0.350705077298E+03    0.19816E-04   -0.24700E-04   573   0.275E-02    0.199E-02
RMM:   5    -0.350705087333E+03   -0.10035E-04   -0.89480E-05   536   0.208E-02    0.126E-02
RMM:   6    -0.350705068075E+03    0.19258E-04   -0.24873E-05   539   0.102E-02    0.527E-03
RMM:   7    -0.350705063024E+03    0.50514E-05   -0.15588E-06   346   0.299E-03    0.579E-03
RMM:   8    -0.350705055298E+03    0.77257E-05   -0.40425E-07   344   0.138E-03    0.548E-03
RMM:   9    -0.350705054752E+03    0.54661E-06   -0.23446E-07   304   0.976E-04
   6 F= -.35201335E+03 E0= -.35201335E+03  d E =-.431194E+00
 curvature:  -0.42 expect dE=-0.485E+00 dE for cont linesearch -0.819E-08
 trial: gam= 1.09377 g(F)=  0.114E+01 g(S)=  0.000E+00 ort = 0.157E-03 (trialstep = 0.397E+00)
 search vector abs. value=  0.266E+01
 bond charge predicted
       N       E                     dE             d eps       ncg     rms          rms(c)
RMM:   1    -0.351216277631E+03   -0.51122E+00   -0.66427E+01   536   0.221E+01    0.109E+00
RMM:   2    -0.351025205640E+03    0.19107E+00   -0.43716E-01   536   0.160E+00    0.101E+00
RMM:   3    -0.351039874650E+03   -0.14669E-01   -0.33882E-01   536   0.105E+00    0.107E+00
RMM:   4    -0.351024510806E+03    0.15364E-01   -0.22596E-01   536   0.102E+00    0.265E-01
RMM:   5    -0.351036526073E+03   -0.12015E-01   -0.73344E-03   538   0.175E-01    0.176E-01
RMM:   6    -0.351043629448E+03   -0.71034E-02   -0.13096E-02   536   0.225E-01    0.128E-01
RMM:   7    -0.351046458098E+03   -0.28287E-02   -0.32364E-03   536   0.115E-01    0.339E-02
RMM:   8    -0.351047233589E+03   -0.77549E-03   -0.20040E-04   536   0.292E-02    0.207E-02
RMM:   9    -0.351047819099E+03   -0.58551E-03   -0.12468E-04   536   0.219E-02    0.144E-02
RMM:  10    -0.351048139851E+03   -0.32075E-03   -0.92662E-05   539   0.177E-02    0.152E-02
RMM:  11    -0.351048481366E+03   -0.34152E-03   -0.53113E-05   536   0.142E-02    0.885E-03
RMM:  12    -0.351048548198E+03   -0.66832E-04   -0.27528E-06   373   0.396E-03    0.539E-03
RMM:  13    -0.351048578710E+03   -0.30512E-04   -0.47990E-06   442   0.432E-03    0.559E-03
RMM:  14    -0.351048586773E+03   -0.80632E-05   -0.12524E-06   344   0.236E-03    0.489E-03
RMM:  15    -0.351048600913E+03   -0.14140E-04   -0.52092E-07   344   0.147E-03    0.481E-03
RMM:  16    -0.351048606687E+03   -0.57744E-05   -0.13132E-07   272   0.769E-04    0.482E-03
RMM:  17    -0.351048607583E+03   -0.89534E-06   -0.33656E-08   195   0.542E-04
   7 F= -.35235838E+03 E0= -.35235838E+03  d E =-.345029E+00
 trial-energy change:   -0.345029  1 .order   -0.344879   -0.454050   -0.235707
 step:   0.8259(harm=  0.8259)  dis= 0.04084  next Energy=  -352.485451 (dE=-0.472E+00)
 bond charge predicted
       N       E                     dE             d eps       ncg     rms          rms(c)
RMM:   1    -0.351373197405E+03   -0.32459E+00   -0.77581E+01   536   0.239E+01    0.120E+00
RMM:   2    -0.351163344762E+03    0.20985E+00   -0.50281E-01   536   0.168E+00    0.286E-01
RMM:   3    -0.351170794813E+03   -0.74501E-02   -0.65961E-02   536   0.417E-01    0.113E-01
RMM:   4    -0.351172159838E+03   -0.13650E-02   -0.39211E-03   565   0.110E-01    0.141E-01
RMM:   5    -0.351172662601E+03   -0.50276E-03   -0.26234E-03   536   0.928E-02    0.326E-02
RMM:   6    -0.351173026292E+03   -0.36369E-03   -0.27327E-04   570   0.324E-02    0.181E-02
RMM:   7    -0.351173199443E+03   -0.17315E-03   -0.25446E-05   537   0.107E-02    0.841E-03
RMM:   8    -0.351173291701E+03   -0.92258E-04   -0.18639E-05   547   0.907E-03    0.663E-03
RMM:   9    -0.351173323585E+03   -0.31883E-04   -0.10409E-05   492   0.627E-03    0.520E-03
RMM:  10    -0.351173331202E+03   -0.76176E-05   -0.14494E-06   344   0.241E-03    0.474E-03
RMM:  11    -0.351173335089E+03   -0.38871E-05   -0.72890E-07   344   0.176E-03    0.449E-03
RMM:  12    -0.351173340420E+03   -0.53307E-05   -0.17919E-07   341   0.117E-03    0.445E-03
RMM:  13    -0.351173340551E+03   -0.13151E-06   -0.39944E-08   224   0.533E-04
   8 F= -.35248467E+03 E0= -.35248467E+03  d E =-.471326E+00
 curvature:  -0.96 expect dE=-0.589E+00 dE for cont linesearch -0.281E-04
 trial: gam= 0.46680 g(F)=  0.613E+00 g(S)=  0.000E+00 ort =-0.882E-02 (trialstep = 0.483E+00)
 search vector abs. value=  0.118E+01
 bond charge predicted
       N       E                     dE             d eps       ncg     rms          rms(c)
RMM:   1    -0.351392986693E+03   -0.21965E+00   -0.36801E+01   536   0.169E+01    0.878E-01
RMM:   2    -0.351322705800E+03    0.70281E-01   -0.39048E-01   536   0.138E+00    0.106E+00
RMM:   3    -0.351301525707E+03    0.21180E-01   -0.97285E-02   536   0.647E-01    0.363E-01
RMM:   4    -0.351315081485E+03   -0.13556E-01   -0.69597E-02   536   0.534E-01    0.277E-01
RMM:   5    -0.351320889623E+03   -0.58081E-02   -0.15004E-02   536   0.279E-01    0.764E-02
RMM:   6    -0.351322543861E+03   -0.16542E-02   -0.10767E-03   536   0.763E-02    0.172E-02
RMM:   7    -0.351323472282E+03   -0.92842E-03   -0.29234E-04   539   0.289E-02    0.206E-02
RMM:   8    -0.351324382007E+03   -0.90973E-03   -0.12931E-04   539   0.224E-02    0.992E-03
RMM:   9    -0.351324541578E+03   -0.15957E-03   -0.11361E-05   502   0.682E-03    0.662E-03
RMM:  10    -0.351324620033E+03   -0.78455E-04   -0.11691E-05   495   0.652E-03    0.506E-03
RMM:  11    -0.351324658013E+03   -0.37980E-04   -0.19425E-06   346   0.317E-03    0.440E-03
RMM:  12    -0.351324666252E+03   -0.82391E-05   -0.17999E-06   344   0.309E-03    0.424E-03
RMM:  13    -0.351324672180E+03   -0.59281E-05   -0.21281E-07   343   0.116E-03    0.419E-03
RMM:  14    -0.351324674320E+03   -0.21400E-05   -0.73047E-07   344   0.210E-03    0.428E-03
RMM:  15    -0.351324681784E+03   -0.74637E-05   -0.14711E-07   344   0.956E-04    0.414E-03
RMM:  16    -0.351324681859E+03   -0.74875E-07   -0.72569E-08   272   0.661E-04
   9 F= -.35263624E+03 E0= -.35263624E+03  d E =-.151563E+00
 trial-energy change:   -0.151563  1 .order   -0.151915   -0.293939   -0.009891
 step:   0.4997(harm=  0.4997)  dis= 0.01539  next Energy=  -352.636759 (dE=-0.152E+00)
 bond charge predicted
       N       E                     dE             d eps       ncg     rms          rms(c)
RMM:   1    -0.351324928871E+03   -0.24709E-03   -0.44537E-02   536   0.587E-01    0.311E-02
RMM:   2    -0.351324849565E+03    0.79306E-04   -0.24009E-04   536   0.401E-02    0.500E-03
RMM:   3    -0.351324850899E+03   -0.13342E-05   -0.15244E-05   490   0.674E-03    0.517E-03
RMM:   4    -0.351324857533E+03   -0.66344E-05   -0.18534E-06   355   0.314E-03    0.421E-03
RMM:   5    -0.351324853950E+03    0.35829E-05   -0.40668E-07   344   0.161E-03    0.412E-03
RMM:   6    -0.351324852149E+03    0.18013E-05   -0.15316E-07   344   0.104E-03    0.413E-03
RMM:   7    -0.351324852140E+03    0.87857E-08   -0.17046E-08   185   0.473E-04
  10 F= -.35263642E+03 E0= -.35263642E+03  d E =-.151745E+00
 curvature:  -0.49 expect dE=-0.164E+00 dE for cont linesearch -0.843E-07
 trial: gam= 0.54190 g(F)=  0.337E+00 g(S)=  0.000E+00 ort = 0.453E-03 (trialstep = 0.486E+00)
 search vector abs. value=  0.686E+00
 bond charge predicted
       N       E                     dE             d eps       ncg     rms          rms(c)
RMM:   1    -0.351462829632E+03   -0.13798E+00   -0.14158E+01   536   0.104E+01    0.683E-01
RMM:   2    -0.351421649459E+03    0.41180E-01   -0.23178E-01   536   0.110E+00    0.618E-01
RMM:   3    -0.351423365885E+03   -0.17164E-02   -0.43904E-02   536   0.434E-01    0.424E-01
RMM:   4    -0.351423288497E+03    0.77388E-04   -0.30068E-02   536   0.339E-01    0.567E-02
RMM:   5    -0.351430920483E+03   -0.76320E-02   -0.81205E-03   574   0.155E-01    0.148E-01
RMM:   6    -0.351433293330E+03   -0.23728E-02   -0.78290E-03   536   0.166E-01    0.688E-02
RMM:   7    -0.351434310434E+03   -0.10171E-02   -0.14105E-03   536   0.785E-02    0.493E-02
RMM:   8    -0.351436233454E+03   -0.19230E-02   -0.10236E-03   560   0.591E-02    0.608E-02
RMM:   9    -0.351436988499E+03   -0.75504E-03   -0.82272E-04   537   0.555E-02    0.136E-02
RMM:  10    -0.351437200726E+03   -0.21223E-03   -0.41134E-05   536   0.142E-02    0.585E-03
RMM:  11    -0.351437263123E+03   -0.62398E-04   -0.66171E-06   489   0.456E-03    0.482E-03
RMM:  12    -0.351437292371E+03   -0.29247E-04   -0.12663E-06   346   0.255E-03    0.464E-03
RMM:  13    -0.351437299853E+03   -0.74819E-05   -0.21587E-06   370   0.295E-03    0.396E-03
RMM:  14    -0.351437306397E+03   -0.65440E-05   -0.21645E-07   344   0.123E-03    0.394E-03
RMM:  15    -0.351437306412E+03   -0.15687E-07   -0.56050E-08   272   0.642E-04
  11 F= -.35274925E+03 E0= -.35274925E+03  d E =-.112830E+00
 trial-energy change:   -0.112830  1 .order   -0.112342   -0.164122   -0.060562
 step:   0.7587(harm=  0.7707)  dis= 0.01749  next Energy=  -352.766294 (dE=-0.130E+00)
 bond charge predicted
       N       E                     dE             d eps       ncg     rms          rms(c)
RMM:   1    -0.351461959956E+03   -0.24654E-01   -0.44453E+00   536   0.585E+00    0.390E-01
RMM:   2    -0.351453830562E+03    0.81294E-02   -0.30487E-02   536   0.437E-01    0.373E-02
RMM:   3    -0.351454349323E+03   -0.51876E-03   -0.29001E-03   542   0.991E-02    0.414E-02
RMM:   4    -0.351454289996E+03    0.59327E-04   -0.26534E-04   545   0.343E-02    0.889E-03
RMM:   5    -0.351454267742E+03    0.22254E-04   -0.27189E-05   539   0.891E-03    0.498E-03
RMM:   6    -0.351454270728E+03   -0.29863E-05   -0.34731E-06   407   0.388E-03    0.618E-03
RMM:   7    -0.351454266435E+03    0.42933E-05   -0.20730E-06   368   0.296E-03    0.420E-03
RMM:   8    -0.351454262316E+03    0.41190E-05   -0.97668E-07   344   0.221E-03    0.381E-03
RMM:   9    -0.351454262708E+03   -0.39215E-06   -0.37515E-07   344   0.141E-03
  12 F= -.35276648E+03 E0= -.35276648E+03  d E =-.130059E+00
 curvature:  -0.78 expect dE=-0.166E+00 dE for cont linesearch -0.101E-05
 trial: gam= 0.62533 g(F)=  0.212E+00 g(S)=  0.000E+00 ort = 0.941E-03 (trialstep = 0.541E+00)
 search vector abs. value=  0.482E+00
 bond charge predicted
       N       E                     dE             d eps       ncg     rms          rms(c)
RMM:   1    -0.351522109616E+03   -0.67847E-01   -0.64726E+00   536   0.730E+00    0.532E-01
RMM:   2    -0.351496197626E+03    0.25912E-01   -0.10074E-01   536   0.751E-01    0.567E-01
RMM:   3    -0.351495575742E+03    0.62188E-03   -0.12439E-02   536   0.222E-01    0.599E-01
RMM:   4    -0.351507206780E+03   -0.11631E-01   -0.20854E-02   536   0.277E-01    0.373E-01
RMM:   5    -0.351510856205E+03   -0.36494E-02   -0.16624E-02   545   0.246E-01    0.809E-02
RMM:   6    -0.351514622398E+03   -0.37662E-02   -0.32899E-03   551   0.115E-01    0.523E-02
RMM:   7    -0.351516006785E+03   -0.13844E-02   -0.48455E-04   536   0.476E-02    0.234E-02
RMM:   8    -0.351516487478E+03   -0.48069E-03   -0.29237E-04   549   0.325E-02    0.275E-02
RMM:   9    -0.351516902836E+03   -0.41536E-03   -0.13267E-04   536   0.263E-02    0.172E-02
RMM:  10    -0.351516977106E+03   -0.74270E-04   -0.19226E-05   527   0.968E-03    0.935E-03
RMM:  11    -0.351516996487E+03   -0.19381E-04   -0.28287E-05   536   0.996E-03    0.615E-03
RMM:  12    -0.351517001139E+03   -0.46527E-05   -0.38548E-06   428   0.514E-03    0.391E-03
RMM:  13    -0.351516990376E+03    0.10763E-04   -0.16393E-06   344   0.275E-03    0.376E-03
RMM:  14    -0.351516991657E+03   -0.12806E-05   -0.49136E-07   344   0.162E-03    0.374E-03
RMM:  15    -0.351516989677E+03    0.19800E-05   -0.23949E-07   337   0.105E-03    0.387E-03
RMM:  16    -0.351516989202E+03    0.47457E-06   -0.38443E-08   215   0.504E-04
  13 F= -.35282827E+03 E0= -.35282827E+03  d E =-.617927E-01
 trial-energy change:   -0.061793  1 .order   -0.061780   -0.115185   -0.008375
 step:   0.5832(harm=  0.5832)  dis= 0.01199  next Energy=  -352.828585 (dE=-0.621E-01)
 bond charge predicted
       N       E                     dE             d eps       ncg     rms          rms(c)
RMM:   1    -0.351517423164E+03   -0.43349E-03   -0.39731E-02   536   0.572E-01    0.414E-02
RMM:   2    -0.351517392345E+03    0.30819E-04   -0.27807E-04   536   0.447E-02    0.600E-03
RMM:   3    -0.351517411614E+03   -0.19270E-04   -0.21662E-05   537   0.975E-03    0.447E-03
RMM:   4    -0.351517405903E+03    0.57112E-05   -0.82785E-07   344   0.226E-03    0.399E-03
RMM:   5    -0.351517406709E+03   -0.80573E-06   -0.32578E-07   344   0.133E-03
  14 F= -.35282862E+03 E0= -.35282862E+03  d E =-.621422E-01
 curvature:  -0.66 expect dE=-0.695E-01 dE for cont linesearch -0.641E-08
 trial: gam= 0.50275 g(F)=  0.105E+00 g(S)=  0.000E+00 ort = 0.685E-04 (trialstep = 0.549E+00)
 search vector abs. value=  0.227E+00
 bond charge predicted
       N       E                     dE             d eps       ncg     rms          rms(c)
RMM:   1    -0.351545506167E+03   -0.28100E-01   -0.39877E+00   536   0.578E+00    0.336E-01
RMM:   2    -0.351526686777E+03    0.18819E-01   -0.26388E-02   536   0.394E-01    0.231E-01
RMM:   3    -0.351524932155E+03    0.17546E-02   -0.27401E-02   536   0.304E-01    0.226E-01
RMM:   4    -0.351536041042E+03   -0.11109E-01   -0.40780E-03   536   0.129E-01    0.111E-01
RMM:   5    -0.351537868498E+03   -0.18275E-02   -0.59857E-03   536   0.140E-01    0.137E-01
RMM:   6    -0.351538355129E+03   -0.48663E-03   -0.45130E-03   536   0.127E-01    0.279E-02
RMM:   7    -0.351538919156E+03   -0.56403E-03   -0.10706E-04   536   0.229E-02    0.230E-02
RMM:   8    -0.351539033766E+03   -0.11461E-03   -0.57077E-05   536   0.148E-02    0.149E-02
RMM:   9    -0.351539146767E+03   -0.11300E-03   -0.51086E-05   536   0.151E-02    0.619E-03
RMM:  10    -0.351539204838E+03   -0.58070E-04   -0.12547E-05   533   0.656E-03    0.787E-03
RMM:  11    -0.351539229538E+03   -0.24700E-04   -0.73641E-06   464   0.536E-03    0.405E-03
RMM:  12    -0.351539233530E+03   -0.39922E-05   -0.15215E-06   350   0.278E-03    0.445E-03
RMM:  13    -0.351539235927E+03   -0.23975E-05   -0.49741E-07   344   0.173E-03    0.386E-03
RMM:  14    -0.351539238440E+03   -0.25124E-05   -0.53891E-07   344   0.175E-03    0.381E-03
RMM:  15    -0.351539238355E+03    0.84619E-07   -0.12030E-07   341   0.844E-04
  15 F= -.35285089E+03 E0= -.35285089E+03  d E =-.222747E-01
 trial-energy change:   -0.022275  1 .order   -0.022565   -0.057875    0.012745
 step:   0.4481(harm=  0.4501)  dis= 0.00788  next Energy=  -352.852070 (dE=-0.235E-01)
 bond charge predicted
       N       E                     dE             d eps       ncg     rms          rms(c)
RMM:   1    -0.351540722266E+03   -0.14838E-02   -0.13509E-01   536   0.106E+00    0.615E-02
RMM:   2    -0.351540468302E+03    0.25396E-03   -0.79499E-04   536   0.687E-02    0.734E-03
RMM:   3    -0.351540477499E+03   -0.91967E-05   -0.72745E-05   560   0.131E-02    0.484E-03
RMM:   4    -0.351540494645E+03   -0.17146E-04   -0.18860E-06   377   0.282E-03    0.439E-03
RMM:   5    -0.351540496169E+03   -0.15245E-05   -0.78760E-07   344   0.182E-03    0.383E-03
RMM:   6    -0.351540496487E+03   -0.31720E-06   -0.17764E-07   280   0.863E-04
  16 F= -.35285206E+03 E0= -.35285206E+03  d E =-.234432E-01
 curvature:  -0.48 expect dE=-0.106E-01 dE for cont linesearch -0.122E-07
 trial: gam= 0.19664 g(F)=  0.218E-01 g(S)=  0.000E+00 ort = 0.755E-04 (trialstep = 0.529E+00)
 search vector abs. value=  0.306E-01
 bond charge predicted
       N       E                     dE             d eps       ncg     rms          rms(c)
RMM:   1    -0.351550969980E+03   -0.10474E-01   -0.86221E-01   536   0.258E+00    0.151E-01
RMM:   2    -0.351546091869E+03    0.48781E-02   -0.11347E-02   536   0.248E-01    0.155E-01
RMM:   3    -0.351548101863E+03   -0.20100E-02   -0.17673E-03   536   0.851E-02    0.620E-02
RMM:   4    -0.351548375321E+03   -0.27346E-03   -0.28863E-03   536   0.104E-01    0.724E-02
RMM:   5    -0.351548659256E+03   -0.28393E-03   -0.81491E-04   536   0.596E-02    0.109E-02
RMM:   6    -0.351548880619E+03   -0.22136E-03   -0.11933E-04   536   0.241E-02    0.167E-02
RMM:   7    -0.351549020416E+03   -0.13980E-03   -0.34908E-05   536   0.126E-02    0.855E-03
RMM:   8    -0.351549064215E+03   -0.43799E-04   -0.60062E-06   435   0.492E-03    0.628E-03
RMM:   9    -0.351549082526E+03   -0.18310E-04   -0.33223E-06   410   0.345E-03    0.445E-03
RMM:  10    -0.351549092772E+03   -0.10246E-04   -0.37420E-06   428   0.368E-03    0.409E-03
RMM:  11    -0.351549102887E+03   -0.10116E-04   -0.94951E-07   344   0.228E-03    0.378E-03
RMM:  12    -0.351549105266E+03   -0.23782E-05   -0.16683E-07   344   0.111E-03    0.374E-03
RMM:  13    -0.351549105013E+03    0.25290E-06   -0.96193E-08   344   0.913E-04
  17 F= -.35286068E+03 E0= -.35286068E+03  d E =-.861358E-02
 trial-energy change:   -0.008614  1 .order   -0.008546   -0.011549   -0.005543
 step:   0.9640(harm=  1.0173)  dis= 0.00609  next Energy=  -352.862993 (dE=-0.109E-01)
 bond charge predicted
       N       E                     dE             d eps       ncg     rms          rms(c)
RMM:   1    -0.351552954756E+03   -0.38495E-02   -0.58213E-01   536   0.212E+00    0.124E-01
RMM:   2    -0.351551593803E+03    0.13610E-02   -0.31739E-03   536   0.138E-01    0.158E-02
RMM:   3    -0.351551675668E+03   -0.81865E-04   -0.35703E-04   536   0.300E-02    0.838E-03
RMM:   4    -0.351551675018E+03    0.64967E-06   -0.15513E-05   490   0.789E-03    0.468E-03
RMM:   5    -0.351551671776E+03    0.32428E-05   -0.37788E-06   371   0.317E-03    0.400E-03
RMM:   6    -0.351551673554E+03   -0.17782E-05   -0.35863E-07   344   0.121E-03    0.414E-03
RMM:   7    -0.351551671812E+03    0.17422E-05   -0.19085E-07   305   0.914E-04    0.420E-03
RMM:   8    -0.351551670801E+03    0.10103E-05   -0.28577E-07   342   0.116E-03    0.382E-03
RMM:   9    -0.351551670934E+03   -0.13264E-06   -0.11021E-07   273   0.767E-04
  18 F= -.35286325E+03 E0= -.35286325E+03  d E =-.111867E-01
 curvature:  -0.71 expect dE=-0.284E-01 dE for cont linesearch -0.341E-04
 trial: gam= 1.79930 g(F)=  0.403E-01 g(S)=  0.000E+00 ort = 0.122E-02 (trialstep = 0.131E+00)
 search vector abs. value=  0.144E+00
 bond charge predicted
       N       E                     dE             d eps       ncg     rms          rms(c)
RMM:   1    -0.351557560709E+03   -0.58899E-02   -0.40532E-01   536   0.177E+00    0.990E-02
RMM:   2    -0.351556125246E+03    0.14355E-02   -0.41181E-03   536   0.150E-01    0.165E-01
RMM:   3    -0.351555764866E+03    0.36038E-03   -0.10070E-03   537   0.630E-02    0.917E-02
RMM:   4    -0.351556195460E+03   -0.43059E-03   -0.13340E-03   536   0.665E-02    0.285E-02
RMM:   5    -0.351556464407E+03   -0.26895E-03   -0.13995E-04   536   0.258E-02    0.118E-02
RMM:   6    -0.351556592442E+03   -0.12803E-03   -0.66642E-05   544   0.150E-02    0.742E-03
RMM:   7    -0.351556671945E+03   -0.79503E-04   -0.53277E-06   458   0.463E-03    0.801E-03
RMM:   8    -0.351556720935E+03   -0.48990E-04   -0.21101E-05   536   0.904E-03    0.594E-03
RMM:   9    -0.351556742178E+03   -0.21243E-04   -0.53217E-06   442   0.475E-03    0.414E-03
RMM:  10    -0.351556754803E+03   -0.12624E-04   -0.11170E-06   344   0.235E-03    0.380E-03
RMM:  11    -0.351556760945E+03   -0.61429E-05   -0.20658E-07   344   0.122E-03    0.376E-03
RMM:  12    -0.351556763235E+03   -0.22892E-05   -0.91226E-08   283   0.778E-04    0.370E-03
RMM:  13    -0.351556765305E+03   -0.20706E-05   -0.93659E-08   335   0.902E-04    0.373E-03
RMM:  14    -0.351556765658E+03   -0.35228E-06    0.00000E+00   152   0.330E-04
  19 F= -.35286839E+03 E0= -.35286839E+03  d E =-.514528E-02
 trial-energy change:   -0.005145  1 .order   -0.005102   -0.005575   -0.004629
 step:   0.4576(harm=  0.7730)  dis= 0.00702  next Energy=  -352.874828 (dE=-0.116E-01)
 bond charge predicted
       N       E                     dE             d eps       ncg     rms          rms(c)
RMM:   1    -0.351570384788E+03   -0.13619E-01   -0.25095E+00   536   0.441E+00    0.248E-01
RMM:   2    -0.351565026168E+03    0.53586E-02   -0.15321E-02   536   0.288E-01    0.584E-02
RMM:   3    -0.351565282124E+03   -0.25596E-03   -0.22581E-03   542   0.737E-02    0.153E-02
RMM:   4    -0.351565321239E+03   -0.39115E-04   -0.94421E-05   541   0.172E-02    0.114E-02
RMM:   5    -0.351565315440E+03    0.57986E-05   -0.26963E-05   528   0.777E-03    0.687E-03
RMM:   6    -0.351565313976E+03    0.14644E-05   -0.10030E-06   353   0.185E-03    0.610E-03
RMM:   7    -0.351565309110E+03    0.48652E-05   -0.30773E-06   401   0.332E-03    0.390E-03
RMM:   8    -0.351565311435E+03   -0.23243E-05   -0.40894E-07   344   0.150E-03    0.373E-03
RMM:   9    -0.351565312610E+03   -0.11754E-05   -0.22676E-07   307   0.104E-03    0.371E-03
RMM:  10    -0.351565312030E+03    0.57957E-06   -0.42675E-08   251   0.600E-04
  20 F= -.35287707E+03 E0= -.35287707E+03  d E =-.138176E-01
 curvature:  -0.99 expect dE=-0.987E-02 dE for cont linesearch -0.206E-02
 ZBRENT: increasing intervall
 opt :   1.1105  next Energy=  -352.876574 (dE=-0.133E-01)
 bond charge predicted
       N       E                     dE             d eps       ncg     rms          rms(c)
RMM:   1    -0.351584807585E+03   -0.19495E-01   -0.10025E+01   536   0.882E+00    0.505E-01
RMM:   2    -0.351563205340E+03    0.21602E-01   -0.60388E-02   536   0.574E-01    0.139E-01
RMM:   3    -0.351564460739E+03   -0.12554E-02   -0.68115E-03   546   0.122E-01    0.509E-02
RMM:   4    -0.351564539520E+03   -0.78781E-04   -0.72664E-04   579   0.416E-02    0.138E-02
RMM:   5    -0.351564554681E+03   -0.15162E-04   -0.33765E-05   562   0.106E-02    0.715E-03
RMM:   6    -0.351564555932E+03   -0.12503E-05   -0.12920E-05   511   0.680E-03    0.142E-02
RMM:   7    -0.351564552818E+03    0.31137E-05   -0.65816E-06   450   0.493E-03    0.852E-03
RMM:   8    -0.351564551478E+03    0.13402E-05   -0.20263E-06   361   0.307E-03    0.647E-03
RMM:   9    -0.351564553486E+03   -0.20084E-05   -0.35401E-06   413   0.360E-03    0.406E-03
RMM:  10    -0.351564554273E+03   -0.78691E-06   -0.81263E-07   344   0.207E-03
  21 F= -.35287656E+03 E0= -.35287656E+03  d E =-.133110E-01
 curvature:   0.24 expect dE= 0.116E-01 dE for cont linesearch  0.637E-03
 ZBRENT: bracketing found
 ZBRENT: interpolating
 opt :   0.7632  next Energy=  -352.879706 (dE=-0.165E-01)
 bond charge predicted
       N       E                     dE             d eps       ncg     rms          rms(c)
RMM:   1    -0.351573916574E+03   -0.93631E-02   -0.28379E+00   536   0.469E+00    0.264E-01
RMM:   2    -0.351567669552E+03    0.62470E-02   -0.16401E-02   536   0.303E-01    0.814E-02
RMM:   3    -0.351567918501E+03   -0.24895E-03   -0.26213E-03   536   0.791E-02    0.115E-02
RMM:   4    -0.351567943236E+03   -0.24735E-04   -0.11987E-04   540   0.184E-02    0.586E-03
RMM:   5    -0.351567957799E+03   -0.14563E-04   -0.35221E-05   467   0.729E-03    0.640E-03
RMM:   6    -0.351567963291E+03   -0.54923E-05   -0.86117E-06   483   0.567E-03    0.397E-03
RMM:   7    -0.351567963184E+03    0.10692E-06   -0.57003E-07   344   0.171E-03
  22 F= -.35287984E+03 E0= -.35287984E+03  d E =-.165865E-01
 curvature:  -0.99 expect dE=-0.156E-01 dE for cont linesearch -0.191E-06
 trial: gam= 0.50805 g(F)=  0.158E-01 g(S)=  0.000E+00 ort = 0.167E-03 (trialstep = 0.258E+00)
 search vector abs. value=  0.531E-01
 bond charge predicted
       N       E                     dE             d eps       ncg     rms          rms(c)
RMM:   1    -0.351572208076E+03   -0.42448E-02   -0.66474E-01   536   0.228E+00    0.104E-01
RMM:   2    -0.351570366918E+03    0.18412E-02   -0.12858E-02   558   0.218E-01    0.176E-01
RMM:   3    -0.351570167955E+03    0.19896E-03   -0.11660E-03   536   0.751E-02    0.118E-01
RMM:   4    -0.351570482356E+03   -0.31440E-03   -0.32219E-03   536   0.103E-01    0.269E-02
RMM:   5    -0.351570695258E+03   -0.21290E-03   -0.21553E-04   554   0.290E-02    0.172E-02
RMM:   6    -0.351570875183E+03   -0.17992E-03   -0.61163E-05   536   0.165E-02    0.732E-03
RMM:   7    -0.351570993387E+03   -0.11820E-03   -0.44511E-05   537   0.116E-02    0.153E-02
RMM:   8    -0.351571060769E+03   -0.67383E-04   -0.28782E-05   537   0.109E-02    0.454E-03
RMM:   9    -0.351571070792E+03   -0.10023E-04   -0.14251E-06   348   0.266E-03    0.413E-03
RMM:  10    -0.351571064357E+03    0.64347E-05   -0.48462E-07   344   0.169E-03    0.428E-03
RMM:  11    -0.351571070193E+03   -0.58352E-05   -0.54634E-07   344   0.287E-03    0.386E-03
RMM:  12    -0.351571072320E+03   -0.21276E-05   -0.30300E-07   344   0.163E-03    0.363E-03
RMM:  13    -0.351571073672E+03   -0.13514E-05   -0.11255E-07   344   0.936E-04    0.383E-03
RMM:  14    -0.351571073349E+03    0.32248E-06    0.00000E+00   152   0.390E-04
  23 F= -.35288283E+03 E0= -.35288283E+03  d E =-.299861E-02
 trial-energy change:   -0.002999  1 .order   -0.002961   -0.004087   -0.001834
 step:   0.4366(harm=  0.4673)  dis= 0.00398  next Energy=  -352.883485 (dE=-0.365E-02)
 bond charge predicted
       N       E                     dE             d eps       ncg     rms          rms(c)
RMM:   1    -0.351572431288E+03   -0.13576E-02   -0.32094E-01   536   0.159E+00    0.723E-02
RMM:   2    -0.351571861195E+03    0.57009E-03   -0.18942E-03   536   0.103E-01    0.108E-02
RMM:   3    -0.351571892321E+03   -0.31126E-04   -0.21016E-04   560   0.212E-02    0.548E-03
RMM:   4    -0.351571902653E+03   -0.10332E-04   -0.69318E-06   452   0.540E-03    0.369E-03
RMM:   5    -0.351571901496E+03    0.11570E-05   -0.78689E-07   350   0.163E-03    0.365E-03
RMM:   6    -0.351571900198E+03    0.12979E-05   -0.31215E-07   320   0.108E-03    0.372E-03
RMM:   7    -0.351571899239E+03    0.95899E-06   -0.69857E-08   220   0.645E-04
  24 F= -.35288358E+03 E0= -.35288358E+03  d E =-.374695E-02
 curvature:  -0.76 expect dE=-0.438E-02 dE for cont linesearch -0.106E-04
 trial: gam= 0.28844 g(F)=  0.573E-02 g(S)=  0.000E+00 ort = 0.860E-03 (trialstep = 0.293E+00)
 search vector abs. value=  0.106E-01
 bond charge predicted
       N       E                     dE             d eps       ncg     rms          rms(c)
RMM:   1    -0.351573576762E+03   -0.16766E-02   -0.19411E-01   536   0.122E+00    0.677E-02
RMM:   2    -0.351573411039E+03    0.16572E-03   -0.94411E-03   547   0.185E-01    0.179E-01
RMM:   3    -0.351572668037E+03    0.74300E-03   -0.80518E-03   536   0.172E-01    0.492E-02
RMM:   4    -0.351572961101E+03   -0.29306E-03   -0.32810E-04   536   0.420E-02    0.413E-02
RMM:   5    -0.351573168002E+03   -0.20690E-03   -0.77454E-04   536   0.523E-02    0.411E-02
RMM:   6    -0.351573204346E+03   -0.36344E-04   -0.49783E-05   536   0.154E-02    0.286E-02
RMM:   7    -0.351573241443E+03   -0.37097E-04   -0.66697E-05   536   0.153E-02    0.125E-02
RMM:   8    -0.351573253061E+03   -0.11618E-04   -0.15073E-05   564   0.705E-03    0.701E-03
RMM:   9    -0.351573271681E+03   -0.18620E-04   -0.23910E-05   536   0.935E-03    0.939E-03
RMM:  10    -0.351573289512E+03   -0.17831E-04   -0.37097E-06   434   0.496E-03    0.583E-03
RMM:  11    -0.351573298509E+03   -0.89967E-05   -0.54888E-06   461   0.454E-03    0.354E-03
RMM:  12    -0.351573304562E+03   -0.60525E-05   -0.27597E-07   344   0.149E-03    0.356E-03
RMM:  13    -0.351573305082E+03   -0.52007E-06   -0.45213E-08   214   0.611E-04
  25 F= -.35288502E+03 E0= -.35288502E+03  d E =-.143266E-02
 trial-energy change:   -0.001433  1 .order   -0.001435   -0.001753   -0.001117
 step:   0.8082(harm=  0.8082)  dis= 0.00333  next Energy=  -352.885998 (dE=-0.242E-02)
 bond charge predicted
       N       E                     dE             d eps       ncg     rms          rms(c)
RMM:   1    -0.351575061700E+03   -0.17571E-02   -0.59791E-01   536   0.214E+00    0.118E-01
RMM:   2    -0.351574155868E+03    0.90583E-03   -0.49059E-03   536   0.155E-01    0.206E-02
RMM:   3    -0.351574204012E+03   -0.48144E-04   -0.60156E-04   587   0.388E-02    0.119E-02
RMM:   4    -0.351574224883E+03   -0.20871E-04   -0.21249E-05   534   0.970E-03    0.607E-03
RMM:   5    -0.351574224248E+03    0.63510E-06   -0.37754E-06   432   0.395E-03
  26 F= -.35288598E+03 E0= -.35288598E+03  d E =-.240020E-02
 curvature:  -0.72 expect dE=-0.379E-02 dE for cont linesearch -0.298E-06
 trial: gam= 0.98976 g(F)=  0.527E-02 g(S)=  0.000E+00 ort =-0.664E-04 (trialstep = 0.271E+00)
 search vector abs. value=  0.156E-01
 bond charge predicted
       N       E                     dE             d eps       ncg     rms          rms(c)
RMM:   1    -0.351575701066E+03   -0.14762E-02   -0.12352E-01   536   0.995E-01    0.508E-02
RMM:   2    -0.351574607985E+03    0.10931E-02   -0.10070E-03   541   0.699E-02    0.266E-02
RMM:   3    -0.351574912375E+03   -0.30439E-03   -0.13689E-04   574   0.191E-02    0.321E-02
RMM:   4    -0.351575443119E+03   -0.53074E-03   -0.75766E-04   536   0.514E-02    0.352E-02
RMM:   5    -0.351575477702E+03   -0.34584E-04   -0.52196E-05   536   0.157E-02    0.176E-02
RMM:   6    -0.351575506373E+03   -0.28670E-04   -0.47051E-05   536   0.127E-02    0.566E-03
RMM:   7    -0.351575528622E+03   -0.22250E-04   -0.13868E-05   556   0.676E-03    0.649E-03
RMM:   8    -0.351575543173E+03   -0.14551E-04   -0.35051E-06   407   0.365E-03    0.400E-03
RMM:   9    -0.351575548700E+03   -0.55263E-05   -0.27752E-07   344   0.137E-03    0.372E-03
RMM:  10    -0.351575550922E+03   -0.22221E-05   -0.29607E-07   344   0.133E-03    0.363E-03
RMM:  11    -0.351575553124E+03   -0.22025E-05   -0.19409E-07   344   0.994E-04    0.354E-03
RMM:  12    -0.351575553215E+03   -0.91050E-07   -0.77244E-08   271   0.682E-04
  27 F= -.35288722E+03 E0= -.35288722E+03  d E =-.124159E-02
 trial-energy change:   -0.001242  1 .order   -0.001236   -0.001410   -0.001062
 step:   0.9058(harm=  1.0982)  dis= 0.00392  next Energy=  -352.888536 (dE=-0.255E-02)
 bond charge predicted
       N       E                     dE             d eps       ncg     rms          rms(c)
RMM:   1    -0.351578146970E+03   -0.25938E-02   -0.67775E-01   536   0.233E+00    0.119E-01
RMM:   2    -0.351577206123E+03    0.94085E-03   -0.49573E-03   537   0.158E-01    0.179E-02
RMM:   3    -0.351577306595E+03   -0.10047E-03   -0.58349E-04   586   0.336E-02    0.116E-02
RMM:   4    -0.351577303710E+03    0.28849E-05   -0.18394E-05   511   0.855E-03    0.544E-03
RMM:   5    -0.351577300436E+03    0.32743E-05   -0.39690E-06   413   0.369E-03    0.371E-03
RMM:   6    -0.351577300654E+03   -0.21863E-06   -0.55825E-07   344   0.169E-03
  28 F= -.35288877E+03 E0= -.35288877E+03  d E =-.278502E-02
 curvature:  -1.55 expect dE=-0.108E-01 dE for cont linesearch -0.844E-04
 trial: gam= 1.09154 g(F)=  0.698E-02 g(S)=  0.000E+00 ort = 0.920E-03 (trialstep = 0.225E+00)
 search vector abs. value=  0.275E-01
 bond charge predicted
       N       E                     dE             d eps       ncg     rms          rms(c)
RMM:   1    -0.351579027706E+03   -0.17273E-02   -0.12947E-01   536   0.102E+00    0.628E-02
RMM:   2    -0.351578471205E+03    0.55650E-03   -0.27336E-03   542   0.104E-01    0.114E-01
RMM:   3    -0.351578634741E+03   -0.16354E-03   -0.37271E-03   536   0.113E-01    0.498E-02
RMM:   4    -0.351578840532E+03   -0.20579E-03   -0.30462E-04   537   0.373E-02    0.326E-02
RMM:   5    -0.351578793690E+03    0.46842E-04   -0.19502E-04   536   0.275E-02    0.118E-02
RMM:   6    -0.351578815851E+03   -0.22162E-04   -0.27668E-05   580   0.104E-02    0.937E-03
RMM:   7    -0.351578839492E+03   -0.23641E-04   -0.10862E-05   511   0.628E-03    0.461E-03
RMM:   8    -0.351578847050E+03   -0.75579E-05   -0.32025E-07   344   0.146E-03    0.425E-03
RMM:   9    -0.351578856937E+03   -0.98873E-05   -0.10645E-06   344   0.235E-03    0.372E-03
RMM:  10    -0.351578859941E+03   -0.30037E-05   -0.54344E-07   344   0.170E-03    0.359E-03
RMM:  11    -0.351578859627E+03    0.31440E-06   -0.88342E-08   344   0.849E-04
  29 F= -.35289032E+03 E0= -.35289032E+03  d E =-.155297E-02
 trial-energy change:   -0.001553  1 .order   -0.001562   -0.001796   -0.001329
 step:   0.8654(harm=  0.8654)  dis= 0.00634  next Energy=  -352.892222 (dE=-0.345E-02)
 bond charge predicted
       N       E                     dE             d eps       ncg     rms          rms(c)
RMM:   1    -0.351582099310E+03   -0.32394E-02   -0.10490E+00   536   0.291E+00    0.178E-01
RMM:   2    -0.351580566361E+03    0.15329E-02   -0.62887E-03   536   0.194E-01    0.251E-02
RMM:   3    -0.351580709900E+03   -0.14354E-03   -0.86363E-04   563   0.457E-02    0.186E-02
RMM:   4    -0.351580747646E+03   -0.37745E-04   -0.42441E-05   538   0.132E-02    0.701E-03
RMM:   5    -0.351580756154E+03   -0.85084E-05   -0.22093E-05   544   0.820E-03    0.591E-03
RMM:   6    -0.351580761143E+03   -0.49885E-05   -0.11626E-06   344   0.259E-03    0.456E-03
RMM:   7    -0.351580764182E+03   -0.30392E-05   -0.20886E-06   360   0.293E-03    0.357E-03
RMM:   8    -0.351580762204E+03    0.19783E-05   -0.18218E-07   344   0.105E-03    0.355E-03
RMM:   9    -0.351580762029E+03    0.17469E-06   -0.18404E-07   336   0.937E-04
  30 F= -.35289221E+03 E0= -.35289221E+03  d E =-.344072E-02
 curvature:  -1.49 expect dE=-0.155E-01 dE for cont linesearch -0.280E-06
 trial: gam= 1.77701 g(F)=  0.104E-01 g(S)=  0.000E+00 ort = 0.718E-04 (trialstep = 0.996E-01)
 search vector abs. value=  0.976E-01
 bond charge predicted
       N       E                     dE             d eps       ncg     rms          rms(c)
RMM:   1    -0.351581800577E+03   -0.10384E-02   -0.55993E-02   536   0.680E-01    0.417E-02
RMM:   2    -0.351581630915E+03    0.16966E-03   -0.60544E-04   536   0.553E-02    0.322E-02
RMM:   3    -0.351581605068E+03    0.25847E-04   -0.93129E-05   553   0.182E-02    0.114E-02
RMM:   4    -0.351581661820E+03   -0.56752E-04   -0.43017E-05   536   0.131E-02    0.626E-03
RMM:   5    -0.351581701432E+03   -0.39612E-04   -0.12356E-05   500   0.692E-03    0.823E-03
RMM:   6    -0.351581714397E+03   -0.12965E-04   -0.30536E-06   385   0.363E-03    0.500E-03
RMM:   7    -0.351581731304E+03   -0.16907E-04   -0.65526E-06   445   0.483E-03    0.398E-03
RMM:   8    -0.351581734209E+03   -0.29051E-05   -0.27803E-07   344   0.144E-03    0.379E-03
RMM:   9    -0.351581735723E+03   -0.15147E-05   -0.46408E-07   344   0.156E-03    0.354E-03
RMM:  10    -0.351581737897E+03   -0.21736E-05   -0.15413E-07   344   0.962E-04    0.357E-03
RMM:  11    -0.351581738645E+03   -0.74791E-06   -0.42664E-09   161   0.395E-04
  31 F= -.35289319E+03 E0= -.35289319E+03  d E =-.978644E-03
 ZBRENT: can't locate minimum, use default step
 trial-energy change:   -0.000979  1 .order   -0.000988   -0.001046   -0.000930
 step:   0.3985(harm=  0.8945)  dis= 0.00621  next Energy=  -352.896905 (dE=-0.470E-02)
 bond charge predicted
       N       E                     dE             d eps       ncg     rms          rms(c)
RMM:   1    -0.351584486164E+03   -0.27483E-02   -0.50365E-01   536   0.204E+00    0.125E-01
RMM:   2    -0.351583891451E+03    0.59471E-03   -0.33839E-03   536   0.140E-01    0.132E-02
RMM:   3    -0.351583983147E+03   -0.91695E-04   -0.39748E-04   589   0.290E-02    0.692E-03
RMM:   4    -0.351583981197E+03    0.19495E-05   -0.10901E-05   475   0.647E-03    0.398E-03
RMM:   5    -0.351583978043E+03    0.31546E-05   -0.22260E-06   362   0.295E-03    0.383E-03
RMM:   6    -0.351583978952E+03   -0.90972E-06   -0.32794E-07   344   0.129E-03
  32 F= -.35289543E+03 E0= -.35289543E+03  d E =-.322610E-02
 curvature:  -2.54 expect dE=-0.191E-01 dE for cont linesearch -0.867E-03
 ZBRENT: increasing intervall
 opt :   0.9963  next Energy=  -352.896759 (dE=-0.455E-02)
 bond charge predicted
       N       E                     dE             d eps       ncg     rms          rms(c)
RMM:   1    -0.351587324546E+03   -0.33465E-02   -0.20120E+00   536   0.408E+00    0.251E-01
RMM:   2    -0.351584864249E+03    0.24603E-02   -0.13519E-02   536   0.280E-01    0.323E-02
RMM:   3    -0.351585222070E+03   -0.35782E-03   -0.16081E-03   589   0.574E-02    0.696E-03
RMM:   4    -0.351585239131E+03   -0.17061E-04   -0.31361E-05   544   0.105E-02    0.415E-03
RMM:   5    -0.351585257131E+03   -0.18000E-04   -0.47682E-06   388   0.358E-03    0.451E-03
RMM:   6    -0.351585249595E+03    0.75353E-05   -0.47307E-07   344   0.162E-03    0.408E-03
RMM:   7    -0.351585246769E+03    0.28267E-05   -0.86419E-07   344   0.198E-03    0.370E-03
RMM:   8    -0.351585249484E+03   -0.27153E-05   -0.15372E-07   339   0.904E-04    0.367E-03
RMM:   9    -0.351585252206E+03   -0.27223E-05   -0.72676E-08   303   0.839E-04    0.368E-03
RMM:  10    -0.351585255033E+03   -0.28270E-05   -0.34129E-09   177   0.424E-04    0.365E-03
RMM:  11    -0.351585255479E+03   -0.44569E-06   -0.76972E-08   286   0.632E-04
  33 F= -.35289673E+03 E0= -.35289673E+03  d E =-.452161E-02
 curvature:  -3.88 expect dE=-0.695E-01 dE for cont linesearch -0.783E-04
 trial: gam= 1.54994 g(F)=  0.179E-01 g(S)=  0.000E+00 ort =-0.140E-02 (trialstep = 0.110E+00)
 search vector abs. value=  0.248E+00
 bond charge predicted
       N       E                     dE             d eps       ncg     rms          rms(c)
RMM:   1    -0.351587047317E+03   -0.17923E-02   -0.23328E-01   536   0.136E+00    0.780E-02
RMM:   2    -0.351586411147E+03    0.63617E-03   -0.22812E-03   551   0.105E-01    0.650E-02
RMM:   3    -0.351586853249E+03   -0.44210E-03   -0.18010E-04   581   0.239E-02    0.665E-02
RMM:   4    -0.351586816518E+03    0.36731E-04   -0.23013E-04   536   0.289E-02    0.344E-02
RMM:   5    -0.351586855111E+03   -0.38594E-04   -0.35950E-04   536   0.348E-02    0.133E-02
RMM:   6    -0.351586872613E+03   -0.17501E-04   -0.38803E-05   536   0.136E-02    0.102E-02
RMM:   7    -0.351586879008E+03   -0.63954E-05   -0.26895E-06   395   0.407E-03    0.734E-03
RMM:   8    -0.351586879182E+03   -0.17403E-06   -0.51061E-06   464   0.457E-03
  34 F= -.35289844E+03 E0= -.35289844E+03  d E =-.171030E-02
 ZBRENT: can't locate minimum, use default step
 trial-energy change:   -0.001710  1 .order   -0.001678   -0.001728   -0.001627
 step:   0.4391(harm=  1.8780)  dis= 0.01116  next Energy=  -352.911515 (dE=-0.148E-01)
 bond charge predicted
       N       E                     dE             d eps       ncg     rms          rms(c)
RMM:   1    -0.351592986271E+03   -0.61073E-02   -0.20994E+00   536   0.407E+00    0.233E-01
RMM:   2    -0.351590816191E+03    0.21701E-02   -0.15857E-02   540   0.289E-01    0.282E-02
RMM:   3    -0.351591099981E+03   -0.28379E-03   -0.18445E-03   586   0.653E-02    0.172E-02
RMM:   4    -0.351591105392E+03   -0.54114E-05   -0.63187E-05   546   0.159E-02    0.534E-03
RMM:   5    -0.351591098795E+03    0.65967E-05   -0.76530E-06   451   0.460E-03    0.588E-03
RMM:   6    -0.351591079881E+03    0.18914E-04   -0.17790E-05   536   0.792E-03    0.628E-03
RMM:   7    -0.351591072961E+03    0.69197E-05   -0.52137E-07   344   0.188E-03    0.507E-03
RMM:   8    -0.351591068519E+03    0.44426E-05   -0.31041E-06   406   0.346E-03    0.360E-03
RMM:   9    -0.351591067131E+03    0.13880E-05   -0.14845E-07   344   0.104E-03    0.360E-03
RMM:  10    -0.351591065793E+03    0.13375E-05   -0.61514E-08   243   0.659E-04    0.364E-03
RMM:  11    -0.351591065366E+03    0.42711E-06    0.00000E+00   152   0.381E-04
  35 F= -.35290289E+03 E0= -.35290289E+03  d E =-.616022E-02
 curvature:  -4.99 expect dE=-0.787E-01 dE for cont linesearch -0.293E-02
 ZBRENT: increasing intervall
 opt :   1.0976  next Energy=  -352.909008 (dE=-0.123E-01)
 bond charge predicted
       N       E                     dE             d eps       ncg     rms          rms(c)
RMM:   1    -0.351605289252E+03   -0.14223E-01   -0.83912E+00   536   0.814E+00    0.466E-01
RMM:   2    -0.351595355695E+03    0.99336E-02   -0.61772E-02   537   0.575E-01    0.719E-02
RMM:   3    -0.351596641385E+03   -0.12857E-02   -0.74624E-03   587   0.127E-01    0.120E-02
RMM:   4    -0.351596672202E+03   -0.30817E-04   -0.13766E-04   564   0.221E-02    0.864E-03
RMM:   5    -0.351596705201E+03   -0.32999E-04   -0.23504E-05   513   0.707E-03    0.102E-02
RMM:   6    -0.351596722420E+03   -0.17219E-04   -0.91256E-06   473   0.581E-03    0.472E-03
RMM:   7    -0.351596725240E+03   -0.28199E-05   -0.56844E-07   344   0.177E-03    0.411E-03
RMM:   8    -0.351596726308E+03   -0.10681E-05   -0.12652E-07   331   0.885E-04    0.390E-03
RMM:   9    -0.351596729173E+03   -0.28650E-05   -0.54255E-08   313   0.770E-04    0.382E-03
RMM:  10    -0.351596729381E+03   -0.20847E-06   -0.13775E-07   344   0.102E-03
  36 F= -.35290910E+03 E0= -.35290910E+03  d E =-.123681E-01
 curvature: -10.43 expect dE=-0.182E+00 dE for cont linesearch -0.191E-02
 ZBRENT: increasing intervall
 opt :   2.4148  next Energy=  -352.910953 (dE=-0.142E-01)
 bond charge predicted
       N       E                     dE             d eps       ncg     rms          rms(c)
RMM:   1    -0.351640224797E+03   -0.43496E-01   -0.33522E+01   536   0.163E+01    0.931E-01
RMM:   2    -0.351592371003E+03    0.47854E-01   -0.24752E-01   537   0.115E+00    0.116E-01
RMM:   3    -0.351597495727E+03   -0.51247E-02   -0.29060E-02   587   0.247E-01    0.416E-02
RMM:   4    -0.351597581329E+03   -0.85602E-04   -0.56620E-04   557   0.463E-02    0.276E-02
RMM:   5    -0.351597622244E+03   -0.40915E-04   -0.18914E-04   545   0.234E-02    0.109E-02
RMM:   6    -0.351597639500E+03   -0.17256E-04   -0.20577E-05   543   0.933E-03    0.606E-03
RMM:   7    -0.351597646437E+03   -0.69372E-05   -0.29208E-06   378   0.363E-03    0.476E-03
RMM:   8    -0.351597646466E+03   -0.28585E-07   -0.34667E-07   344   0.146E-03
  37 F= -.35291115E+03 E0= -.35291115E+03  d E =-.144246E-01
 curvature: -10.14 expect dE=-0.404E+00 dE for cont linesearch -0.578E-03
 trial: gam= 1.65434 g(F)=  0.398E-01 g(S)=  0.000E+00 ort =-0.376E-02 (trialstep = 0.200E+00)
 search vector abs. value=  0.706E+00
 bond charge predicted
       N       E                     dE             d eps       ncg     rms          rms(c)
RMM:   1    -0.351605826880E+03   -0.81804E-02   -0.28366E+00   536   0.468E+00    0.273E-01
RMM:   2    -0.351601726971E+03    0.40999E-02   -0.50369E-02   560   0.458E-01    0.285E-01
RMM:   3    -0.351600551619E+03    0.11754E-02   -0.39843E-02   536   0.366E-01    0.193E-01
RMM:   4    -0.351600896862E+03   -0.34524E-03   -0.29626E-03   536   0.119E-01    0.789E-02
RMM:   5    -0.351601638779E+03   -0.74192E-03   -0.16907E-03   559   0.782E-02    0.311E-02
RMM:   6    -0.351601972890E+03   -0.33411E-03   -0.17093E-04   541   0.275E-02    0.311E-02
RMM:   7    -0.351602282224E+03   -0.30933E-03   -0.27584E-05   536   0.114E-02    0.233E-02
RMM:   8    -0.351602428323E+03   -0.14610E-03   -0.76356E-05   536   0.165E-02    0.700E-03
RMM:   9    -0.351602465329E+03   -0.37005E-04   -0.48501E-06   433   0.516E-03    0.994E-03
RMM:  10    -0.351602463808E+03    0.15205E-05   -0.49206E-06   438   0.414E-03    0.578E-03
RMM:  11    -0.351602462629E+03    0.11791E-05   -0.78842E-06   491   0.496E-03    0.416E-03
RMM:  12    -0.351602456352E+03    0.62768E-05   -0.19294E-06   368   0.296E-03    0.482E-03
RMM:  13    -0.351602458361E+03   -0.20088E-05   -0.28454E-07   344   0.144E-03    0.474E-03
RMM:  14    -0.351602458987E+03   -0.62615E-06   -0.25847E-08   213   0.542E-04
  38 F= -.35291614E+03 E0= -.35291614E+03  d E =-.498489E-02
 trial-energy change:   -0.004985  1 .order   -0.004936   -0.006735   -0.003136
 step:   0.3530(harm=  0.3751)  dis= 0.01445  next Energy=  -352.917355 (dE=-0.620E-02)
 bond charge predicted
       N       E                     dE             d eps       ncg     rms          rms(c)
RMM:   1    -0.351605665537E+03   -0.32072E-02   -0.16419E+00   536   0.356E+00    0.208E-01
RMM:   2    -0.351603525601E+03    0.21399E-02   -0.11349E-02   536   0.251E-01    0.285E-02
RMM:   3    -0.351603750208E+03   -0.22461E-03   -0.13860E-03   585   0.564E-02    0.137E-02
RMM:   4    -0.351603757984E+03   -0.77763E-05   -0.36302E-05   547   0.119E-02    0.592E-03
RMM:   5    -0.351603760222E+03   -0.22376E-05   -0.72738E-06   455   0.470E-03    0.357E-03
RMM:   6    -0.351603760585E+03   -0.36357E-06   -0.64204E-07   344   0.169E-03
  39 F= -.35291758E+03 E0= -.35291758E+03  d E =-.642216E-02
 curvature:  -3.88 expect dE=-0.211E-01 dE for cont linesearch -0.262E-04
 ZBRENT: extrapolating
 opt :   0.3778  next Energy=  -352.917604 (dE=-0.645E-02)
 bond charge predicted
       N       E                     dE             d eps       ncg     rms          rms(c)
RMM:   1    -0.351603813836E+03   -0.53614E-04   -0.43239E-02   536   0.578E-01    0.343E-02
RMM:   2    -0.351603767126E+03    0.46710E-04   -0.30298E-04   536   0.408E-02    0.587E-03
RMM:   3    -0.351603774163E+03   -0.70368E-05   -0.34510E-05   522   0.873E-03    0.361E-03
RMM:   4    -0.351603773625E+03    0.53849E-06   -0.54986E-07   346   0.176E-03
  40 F= -.35291761E+03 E0= -.35291761E+03  d E =-.645758E-02
 curvature:  -4.00 expect dE=-0.205E-01 dE for cont linesearch -0.186E-06
 trial: gam=-0.02821 g(F)=  0.512E-02 g(S)=  0.000E+00 ort =-0.181E-03 (trialstep = 0.236E+00)
 search vector abs. value=  0.569E-02
 bond charge predicted
       N       E                     dE             d eps       ncg     rms          rms(c)
RMM:   1    -0.351604933265E+03   -0.11591E-02   -0.39462E-02   536   0.561E-01    0.313E-02
RMM:   2    -0.351604513634E+03    0.41963E-03   -0.29282E-04   536   0.403E-02    0.211E-02
RMM:   3    -0.351604563578E+03   -0.49943E-04   -0.14346E-04   537   0.221E-02    0.151E-02
RMM:   4    -0.351604749888E+03   -0.18631E-03   -0.14484E-05   532   0.826E-03    0.954E-03
RMM:   5    -0.351604831387E+03   -0.81499E-04   -0.41638E-05   536   0.119E-02    0.977E-03
RMM:   6    -0.351604848967E+03   -0.17580E-04   -0.85059E-06   500   0.616E-03    0.728E-03
RMM:   7    -0.351604847994E+03    0.97335E-06   -0.29380E-05   536   0.100E-02    0.732E-03
RMM:   8    -0.351604858961E+03   -0.10967E-04   -0.85918E-06   507   0.593E-03    0.425E-03
RMM:   9    -0.351604867777E+03   -0.88166E-05   -0.81180E-07   344   0.222E-03    0.385E-03
RMM:  10    -0.351604876641E+03   -0.88640E-05   -0.13896E-07   344   0.106E-03    0.365E-03
RMM:  11    -0.351604880862E+03   -0.42206E-05   -0.40892E-07   344   0.154E-03    0.357E-03
RMM:  12    -0.351604875363E+03    0.54985E-05   -0.52066E-08   318   0.715E-04    0.355E-03
RMM:  13    -0.351604875269E+03    0.94245E-07   -0.17021E-10   154   0.412E-04
  41 F= -.35291869E+03 E0= -.35291869E+03  d E =-.107266E-02
 ZBRENT: can't locate minimum, use default step
 trial-energy change:   -0.001073  1 .order   -0.001070   -0.001208   -0.000933
 step:   0.9437(harm=  1.0343)  dis= 0.00226  next Energy=  -352.920261 (dE=-0.265E-02)
 bond charge predicted
       N       E                     dE             d eps       ncg     rms          rms(c)
RMM:   1    -0.351607076954E+03   -0.22016E-02   -0.35515E-01   536   0.168E+00    0.933E-02
RMM:   2    -0.351606487635E+03    0.58932E-03   -0.23089E-03   536   0.118E-01    0.951E-03
RMM:   3    -0.351606544636E+03   -0.57001E-04   -0.17998E-04   578   0.218E-02    0.653E-03
RMM:   4    -0.351606554703E+03   -0.10066E-04   -0.89081E-06   471   0.620E-03    0.386E-03
RMM:   5    -0.351606556022E+03   -0.13188E-05   -0.17399E-06   353   0.286E-03    0.417E-03
RMM:   6    -0.351606556726E+03   -0.70411E-06   -0.78505E-07   344   0.201E-03
  42 F= -.35292028E+03 E0= -.35292028E+03  d E =-.266787E-02
 curvature:  -0.57 expect dE=-0.508E-02 dE for cont linesearch -0.242E-04
 trial: gam= 1.65927 g(F)=  0.896E-02 g(S)=  0.000E+00 ort = 0.493E-03 (trialstep = 0.818E-01)
 search vector abs. value=  0.263E-01
 bond charge predicted
       N       E                     dE             d eps       ncg     rms          rms(c)
RMM:   1    -0.351607299568E+03   -0.74355E-03   -0.11925E-02   536   0.317E-01    0.224E-02
RMM:   2    -0.351607168752E+03    0.13082E-03   -0.12438E-03   547   0.696E-02    0.818E-02
RMM:   3    -0.351607113237E+03    0.55515E-04   -0.36095E-04   536   0.394E-02    0.265E-02
RMM:   4    -0.351607217964E+03   -0.10473E-03   -0.10691E-04   547   0.187E-02    0.723E-03
RMM:   5    -0.351607234955E+03   -0.16991E-04   -0.87395E-06   512   0.633E-03    0.126E-02
RMM:   6    -0.351607257697E+03   -0.22742E-04   -0.24710E-05   536   0.924E-03    0.538E-03
RMM:   7    -0.351607276744E+03   -0.19047E-04   -0.50096E-07   344   0.182E-03    0.410E-03
RMM:   8    -0.351607280191E+03   -0.34466E-05   -0.88089E-07   344   0.187E-03    0.377E-03
RMM:   9    -0.351607283534E+03   -0.33431E-05   -0.14607E-07   320   0.865E-04    0.369E-03
RMM:  10    -0.351607278194E+03    0.53400E-05   -0.59089E-08   324   0.793E-04    0.361E-03
RMM:  11    -0.351607277870E+03    0.32361E-06   -0.39589E-09   172   0.400E-04
  43 F= -.35292102E+03 E0= -.35292102E+03  d E =-.741879E-03
 ZBRENT: can't locate minimum, use default step
 trial-energy change:   -0.000742  1 .order   -0.000738   -0.000800   -0.000677
 step:   0.3271(harm=  0.5347)  dis= 0.00148  next Energy=  -352.922894 (dE=-0.261E-02)
 bond charge predicted
       N       E                     dE             d eps       ncg     rms          rms(c)
RMM:   1    -0.351608916450E+03   -0.16383E-02   -0.10728E-01   536   0.952E-01    0.652E-02
RMM:   2    -0.351608686836E+03    0.22961E-03   -0.85976E-04   536   0.698E-02    0.690E-03
RMM:   3    -0.351608705207E+03   -0.18371E-04   -0.11312E-04   578   0.179E-02    0.141E-02
RMM:   4    -0.351608703522E+03    0.16847E-05   -0.15210E-05   528   0.761E-03    0.595E-03
RMM:   5    -0.351608704904E+03   -0.13819E-05   -0.20912E-06   368   0.300E-03    0.424E-03
RMM:   6    -0.351608706142E+03   -0.12376E-05   -0.51777E-07   344   0.168E-03    0.389E-03
RMM:   7    -0.351608703029E+03    0.31125E-05   -0.46834E-07   344   0.158E-03    0.358E-03
RMM:   8    -0.351608702616E+03    0.41330E-06   -0.36486E-07   344   0.128E-03
  44 F= -.35292251E+03 E0= -.35292251E+03  d E =-.222871E-02
 curvature:  -0.57 expect dE=-0.117E-02 dE for cont linesearch -0.322E-03
 ZBRENT: increasing intervall
 opt :   0.8178  next Energy=  -352.922233 (dE=-0.195E-02)
 bond charge predicted
       N       E                     dE             d eps       ncg     rms          rms(c)
RMM:   1    -0.351609153310E+03   -0.45028E-03   -0.42904E-01   536   0.190E+00    0.131E-01
RMM:   2    -0.351608256463E+03    0.89685E-03   -0.32651E-03   536   0.137E-01    0.160E-02
RMM:   3    -0.351608304606E+03   -0.48143E-04   -0.33054E-04   588   0.289E-02    0.525E-03
RMM:   4    -0.351608301951E+03    0.26548E-05   -0.55358E-06   410   0.491E-03    0.427E-03
RMM:   5    -0.351608303813E+03   -0.18624E-05   -0.98105E-07   350   0.188E-03    0.392E-03
RMM:   6    -0.351608303638E+03    0.17544E-06   -0.19733E-07   269   0.884E-04
  45 F= -.35292223E+03 E0= -.35292223E+03  d E =-.195323E-02
 curvature:   0.49 expect dE= 0.673E-02 dE for cont linesearch  0.468E-03
 ZBRENT: bracketing found
 ZBRENT: interpolating
 opt :   0.5402  next Energy=  -352.922920 (dE=-0.264E-02)
 bond charge predicted
       N       E                     dE             d eps       ncg     rms          rms(c)
RMM:   1    -0.351609340632E+03   -0.10368E-02   -0.13724E-01   536   0.108E+00    0.742E-02
RMM:   2    -0.351609044652E+03    0.29598E-03   -0.10491E-03   536   0.775E-02    0.100E-02
RMM:   3    -0.351609064252E+03   -0.19601E-04   -0.10254E-04   590   0.160E-02    0.379E-03
RMM:   4    -0.351609066541E+03   -0.22894E-05   -0.15631E-06   362   0.274E-03    0.367E-03
RMM:   5    -0.351609066823E+03   -0.28155E-06   -0.28410E-07   319   0.109E-03
  46 F= -.35292293E+03 E0= -.35292293E+03  d E =-.264665E-02
 curvature:  -0.43 expect dE=-0.165E-02 dE for cont linesearch -0.184E-07
 trial: gam= 0.60401 g(F)=  0.385E-02 g(S)=  0.000E+00 ort = 0.336E-04 (trialstep = 0.173E+00)
 search vector abs. value=  0.135E-01
 bond charge predicted
       N       E                     dE             d eps       ncg     rms          rms(c)
RMM:   1    -0.351609757941E+03   -0.69140E-03   -0.37110E-02   536   0.554E-01    0.298E-02
RMM:   2    -0.351609365194E+03    0.39275E-03   -0.21604E-04   536   0.382E-02    0.197E-02
RMM:   3    -0.351609477358E+03   -0.11216E-03   -0.32280E-05   536   0.106E-02    0.948E-03
RMM:   4    -0.351609584835E+03   -0.10748E-03   -0.28980E-05   536   0.106E-02    0.669E-03
RMM:   5    -0.351609662952E+03   -0.78117E-04   -0.10444E-05   506   0.620E-03    0.634E-03
RMM:   6    -0.351609692177E+03   -0.29226E-04   -0.11194E-06   344   0.256E-03    0.525E-03
RMM:   7    -0.351609697616E+03   -0.54388E-05   -0.63769E-07   344   0.198E-03    0.408E-03
RMM:   8    -0.351609691668E+03    0.59484E-05   -0.36160E-07   344   0.146E-03    0.401E-03
RMM:   9    -0.351609689776E+03    0.18913E-05   -0.96174E-08   274   0.821E-04    0.385E-03
RMM:  10    -0.351609688677E+03    0.10997E-05   -0.36317E-07   344   0.133E-03    0.359E-03
RMM:  11    -0.351609691844E+03   -0.31677E-05   -0.12533E-07   344   0.986E-04    0.353E-03
RMM:  12    -0.351609691072E+03    0.77276E-06   -0.71073E-08   274   0.681E-04
  47 F= -.35292353E+03 E0= -.35292353E+03  d E =-.606542E-03
 ZBRENT: can't locate minimum, use default step
 trial-energy change:   -0.000607  1 .order   -0.000610   -0.000672   -0.000547
 step:   0.6939(harm=  0.9321)  dis= 0.00198  next Energy=  -352.924733 (dE=-0.181E-02)
 bond charge predicted
       N       E                     dE             d eps       ncg     rms          rms(c)
RMM:   1    -0.351611400010E+03   -0.17082E-02   -0.33418E-01   536   0.166E+00    0.901E-02
RMM:   2    -0.351610776027E+03    0.62398E-03   -0.18388E-03   536   0.111E-01    0.100E-02
RMM:   3    -0.351610801087E+03   -0.25060E-04   -0.15381E-04   536   0.226E-02    0.784E-03
RMM:   4    -0.351610806834E+03   -0.57466E-05   -0.92039E-06   471   0.613E-03    0.477E-03
RMM:   5    -0.351610810401E+03   -0.35672E-05   -0.26490E-06   388   0.322E-03    0.397E-03
RMM:   6    -0.351610810723E+03   -0.32253E-06   -0.65643E-07   344   0.179E-03
  48 F= -.35292460E+03 E0= -.35292460E+03  d E =-.167323E-02
 curvature:  -1.46 expect dE=-0.193E-02 dE for cont linesearch -0.109E-03
 ZBRENT: extrapolating
 opt :   0.9366  next Energy=  -352.924722 (dE=-0.179E-02)
 bond charge predicted
       N       E                     dE             d eps       ncg     rms          rms(c)
RMM:   1    -0.351611083789E+03   -0.27339E-03   -0.72683E-02   536   0.775E-01    0.427E-02
RMM:   2    -0.351610940444E+03    0.14335E-03   -0.40268E-04   536   0.521E-02    0.520E-03
RMM:   3    -0.351610944000E+03   -0.35559E-05   -0.27532E-05   522   0.914E-03    0.376E-03
RMM:   4    -0.351610944294E+03   -0.29399E-06   -0.99319E-07   351   0.218E-03
  49 F= -.35292471E+03 E0= -.35292471E+03  d E =-.178219E-02
 curvature:  -1.63 expect dE=-0.255E-02 dE for cont linesearch -0.335E-08
 trial: gam= 0.27424 g(F)=  0.156E-02 g(S)=  0.000E+00 ort =-0.526E-05 (trialstep = 0.326E+00)
 search vector abs. value=  0.257E-02
 bond charge predicted
       N       E                     dE             d eps       ncg     rms          rms(c)
RMM:   1    -0.351611466424E+03   -0.52242E-03   -0.12084E-02   536   0.333E-01    0.212E-02
RMM:   2    -0.351611289928E+03    0.17650E-03   -0.13459E-04   536   0.263E-02    0.197E-02
RMM:   3    -0.351611303105E+03   -0.13176E-04   -0.57094E-05   536   0.139E-02    0.210E-02
RMM:   4    -0.351611397107E+03   -0.94002E-04   -0.43942E-05   536   0.131E-02    0.102E-02
RMM:   5    -0.351611443504E+03   -0.46397E-04   -0.61729E-06   465   0.493E-03    0.573E-03
RMM:   6    -0.351611457974E+03   -0.14471E-04   -0.61764E-06   466   0.562E-03    0.837E-03
RMM:   7    -0.351611449289E+03    0.86856E-05   -0.41642E-06   455   0.428E-03    0.523E-03
RMM:   8    -0.351611447294E+03    0.19947E-05   -0.77518E-07   344   0.206E-03    0.398E-03
RMM:   9    -0.351611449863E+03   -0.25690E-05   -0.21445E-07   344   0.127E-03    0.365E-03
RMM:  10    -0.351611449755E+03    0.10781E-06   -0.76200E-08   258   0.666E-04
  50 F= -.35292518E+03 E0= -.35292518E+03  d E =-.472400E-03
 ZBRENT: can't locate minimum, use default step
 trial-energy change:   -0.000472  1 .order   -0.000474   -0.000510   -0.000438
 step:   1.3044(harm=  2.3095)  dis= 0.00211  next Energy=  -352.926513 (dE=-0.180E-02)
 bond charge predicted
       N       E                     dE             d eps       ncg     rms          rms(c)
RMM:   1    -0.351612636194E+03   -0.11863E-02   -0.10863E-01   536   0.998E-01    0.618E-02
RMM:   2    -0.351612498669E+03    0.13752E-03   -0.72719E-04   536   0.648E-02    0.829E-03
RMM:   3    -0.351612502769E+03   -0.41001E-05   -0.81620E-05   565   0.142E-02    0.730E-03
RMM:   4    -0.351612501808E+03    0.96072E-06   -0.46701E-06   442   0.446E-03
  51 F= -.35292613E+03 E0= -.35292613E+03  d E =-.142551E-02
 curvature:  -1.41 expect dE=-0.319E-02 dE for cont linesearch -0.229E-03
 ZBRENT: increasing intervall
 opt :   3.2610  next Energy=  -352.926037 (dE=-0.133E-02)
 bond charge predicted
       N       E                     dE             d eps       ncg     rms          rms(c)
RMM:   1    -0.351613135568E+03   -0.63280E-03   -0.43493E-01   536   0.200E+00    0.123E-01
RMM:   2    -0.351612574678E+03    0.56089E-03   -0.29495E-03   536   0.130E-01    0.145E-02
RMM:   3    -0.351612633610E+03   -0.58933E-04   -0.32778E-04   572   0.275E-02    0.542E-03
RMM:   4    -0.351612643896E+03   -0.10286E-04   -0.84419E-06   432   0.582E-03    0.462E-03
RMM:   5    -0.351612647105E+03   -0.32085E-05   -0.42666E-06   421   0.359E-03    0.433E-03
RMM:   6    -0.351612648177E+03   -0.10726E-05   -0.24063E-07   344   0.119E-03    0.408E-03
RMM:   7    -0.351612649555E+03   -0.13775E-05   -0.73300E-07   344   0.168E-03    0.372E-03
RMM:   8    -0.351612650454E+03   -0.89976E-06   -0.87910E-08   280   0.725E-04
  52 F= -.35292609E+03 E0= -.35292609E+03  d E =-.137747E-02
 curvature:   0.60 expect dE= 0.760E-02 dE for cont linesearch  0.109E-03
 ZBRENT: bracketing found
 ZBRENT: interpolating
 opt :   2.2555  next Energy=  -352.926442 (dE=-0.173E-02)
 bond charge predicted
       N       E                     dE             d eps       ncg     rms          rms(c)
RMM:   1    -0.351613020037E+03   -0.37048E-03   -0.11477E-01   536   0.103E+00    0.633E-02
RMM:   2    -0.351612878145E+03    0.14189E-03   -0.77569E-04   536   0.665E-02    0.656E-03
RMM:   3    -0.351612904936E+03   -0.26791E-04   -0.85183E-05   568   0.142E-02    0.375E-03
RMM:   4    -0.351612903944E+03    0.99200E-06   -0.22427E-06   372   0.306E-03
  53 F= -.35292644E+03 E0= -.35292644E+03  d E =-.173183E-02
 curvature:  -1.70 expect dE=-0.101E-01 dE for cont linesearch -0.115E-07
 trial: gam= 3.81996 g(F)=  0.598E-02 g(S)=  0.000E+00 ort = 0.418E-05 (trialstep = 0.421E-01)
 search vector abs. value=  0.436E-01
 bond charge predicted
       N       E                     dE             d eps       ncg     rms          rms(c)
RMM:   1    -0.351613170911E+03   -0.26597E-03   -0.92363E-03   536   0.275E-01    0.151E-02
RMM:   2    -0.351613141814E+03    0.29097E-04   -0.69457E-05   536   0.197E-02    0.101E-02
RMM:   3    -0.351613160832E+03   -0.19019E-04   -0.15588E-05   512   0.737E-03    0.813E-03
RMM:   4    -0.351613172158E+03   -0.11325E-04   -0.14090E-06   344   0.321E-03    0.683E-03
RMM:   5    -0.351613167746E+03    0.44121E-05   -0.61375E-06   464   0.480E-03    0.626E-03
RMM:   6    -0.351613163720E+03    0.40260E-05   -0.21324E-06   347   0.321E-03    0.519E-03
RMM:   7    -0.351613164220E+03   -0.50074E-06   -0.54209E-07   344   0.172E-03
  54 F= -.35292669E+03 E0= -.35292669E+03  d E =-.246529E-03
 ZBRENT: can't locate minimum, use default step
 trial-energy change:   -0.000247  1 .order   -0.000244   -0.000252   -0.000235
 step:   0.1682(harm=  0.6215)  dis= 0.00102  next Energy=  -352.928304 (dE=-0.186E-02)
 bond charge predicted
       N       E                     dE             d eps       ncg     rms          rms(c)
RMM:   1    -0.351613937158E+03   -0.77344E-03   -0.83128E-02   536   0.826E-01    0.444E-02
RMM:   2    -0.351613825368E+03    0.11179E-03   -0.52395E-04   536   0.554E-02    0.784E-03
RMM:   3    -0.351613836726E+03   -0.11358E-04   -0.61525E-05   541   0.127E-02    0.436E-03
RMM:   4    -0.351613833671E+03    0.30548E-05   -0.24874E-06   390   0.316E-03    0.396E-03
RMM:   5    -0.351613831287E+03    0.23836E-05   -0.12995E-06   344   0.240E-03    0.411E-03
RMM:   6    -0.351613827945E+03    0.33427E-05   -0.25736E-07   344   0.124E-03    0.385E-03
RMM:   7    -0.351613826425E+03    0.15196E-05   -0.31340E-07   343   0.117E-03    0.359E-03
RMM:   8    -0.351613829499E+03   -0.30736E-05   -0.94036E-08   340   0.845E-04    0.358E-03
RMM:   9    -0.351613829642E+03   -0.14285E-06   -0.90678E-09   173   0.340E-04
  55 F= -.35292731E+03 E0= -.35292731E+03  d E =-.870754E-03
 curvature:  -0.88 expect dE=-0.312E-02 dE for cont linesearch -0.387E-03
 ZBRENT: increasing intervall
 opt :   0.4206  next Energy=  -352.928115 (dE=-0.167E-02)
 bond charge predicted
       N       E                     dE             d eps       ncg     rms          rms(c)
RMM:   1    -0.351615144700E+03   -0.13152E-02   -0.33307E-01   536   0.165E+00    0.878E-02
RMM:   2    -0.351614683772E+03    0.46093E-03   -0.20986E-03   536   0.111E-01    0.127E-02
RMM:   3    -0.351614721584E+03   -0.37812E-04   -0.22933E-04   546   0.238E-02    0.422E-03
RMM:   4    -0.351614723687E+03   -0.21033E-05   -0.95730E-06   431   0.569E-03    0.397E-03
RMM:   5    -0.351614723175E+03    0.51234E-06   -0.22830E-06   384   0.201E-03
  56 F= -.35292812E+03 E0= -.35292812E+03  d E =-.168208E-02
 curvature:  -1.82 expect dE=-0.503E-02 dE for cont linesearch -0.175E-03
 ZBRENT: increasing intervall
 opt :   0.9254  next Energy=  -352.927978 (dE=-0.154E-02)
 bond charge predicted
       N       E                     dE             d eps       ncg     rms          rms(c)
RMM:   1    -0.351616477814E+03   -0.17541E-02   -0.13334E+00   536   0.331E+00    0.175E-01
RMM:   2    -0.351614581460E+03    0.18964E-02   -0.82724E-03   536   0.221E-01    0.295E-02
RMM:   3    -0.351614752363E+03   -0.17090E-03   -0.90944E-04   546   0.471E-02    0.614E-03
RMM:   4    -0.351614762665E+03   -0.10302E-04   -0.39753E-05   528   0.114E-02    0.445E-03
RMM:   5    -0.351614764802E+03   -0.21371E-05   -0.98864E-06   409   0.365E-03    0.413E-03
RMM:   6    -0.351614763616E+03    0.11860E-05   -0.33113E-07   277   0.116E-03    0.405E-03
RMM:   7    -0.351614763613E+03    0.33779E-08   -0.10916E-07   236   0.690E-04
  57 F= -.35292800E+03 E0= -.35292800E+03  d E =-.155897E-02
 curvature:   1.50 expect dE= 0.165E-01 dE for cont linesearch  0.230E-03
 ZBRENT: bracketing found
 ZBRENT: interpolating
 opt :   0.6438  next Energy=  -352.928352 (dE=-0.191E-02)
 bond charge predicted
       N       E                     dE             d eps       ncg     rms          rms(c)
RMM:   1    -0.351615535125E+03   -0.77151E-03   -0.41450E-01   536   0.184E+00    0.979E-02
RMM:   2    -0.351614972409E+03    0.56272E-03   -0.26067E-03   536   0.124E-01    0.159E-02
RMM:   3    -0.351615030380E+03   -0.57971E-04   -0.27818E-04   546   0.262E-02    0.456E-03
RMM:   4    -0.351615035588E+03   -0.52075E-05   -0.12155E-05   433   0.632E-03    0.388E-03
RMM:   5    -0.351615038013E+03   -0.24250E-05   -0.30945E-06   396   0.221E-03    0.372E-03
RMM:   6    -0.351615038126E+03   -0.11367E-06   -0.23999E-07   280   0.896E-04
  58 F= -.35292837E+03 E0= -.35292837E+03  d E =-.192456E-02
 curvature:  -1.49 expect dE=-0.718E-02 dE for cont linesearch -0.236E-06
 trial: gam= 0.79655 g(F)=  0.481E-02 g(S)=  0.000E+00 ort = 0.831E-04 (trialstep = 0.162E+00)
 search vector abs. value=  0.326E-01
 bond charge predicted
       N       E                     dE             d eps       ncg     rms          rms(c)
RMM:   1    -0.351615873206E+03   -0.83519E-03   -0.12064E-01   536   0.983E-01    0.559E-02
RMM:   2    -0.351615523134E+03    0.35007E-03   -0.18527E-03   536   0.923E-02    0.555E-02
RMM:   3    -0.351615521892E+03    0.12413E-05   -0.53913E-04   536   0.448E-02    0.204E-02
RMM:   4    -0.351615530698E+03   -0.88058E-05   -0.18906E-05   521   0.969E-03    0.144E-02
RMM:   5    -0.351615585597E+03   -0.54899E-04   -0.51283E-05   536   0.138E-02    0.255E-02
RMM:   6    -0.351615603320E+03   -0.17723E-04   -0.67070E-06   507   0.552E-03    0.193E-02
RMM:   7    -0.351615630258E+03   -0.26939E-04   -0.75064E-06   488   0.550E-03    0.133E-02
RMM:   8    -0.351615666751E+03   -0.36493E-04   -0.59268E-06   483   0.470E-03    0.106E-02
RMM:   9    -0.351615668949E+03   -0.21971E-05   -0.40263E-07   344   0.155E-03    0.949E-03
RMM:  10    -0.351615675877E+03   -0.69289E-05   -0.90060E-07   344   0.240E-03    0.745E-03
RMM:  11    -0.351615688935E+03   -0.13058E-04   -0.19370E-07   344   0.115E-03    0.722E-03
RMM:  12    -0.351615690238E+03   -0.13026E-05   -0.40802E-07   344   0.138E-03    0.599E-03
RMM:  13    -0.351615691652E+03   -0.14139E-05   -0.10077E-06   344   0.214E-03    0.450E-03
RMM:  14    -0.351615693037E+03   -0.13856E-05   -0.82988E-07   344   0.193E-03    0.379E-03
RMM:  15    -0.351615693660E+03   -0.62249E-06   -0.43632E-07   344   0.137E-03
  59 F= -.35292906E+03 E0= -.35292906E+03  d E =-.692458E-03
 ZBRENT: can't locate minimum, use default step
 trial-energy change:   -0.000692  1 .order   -0.000696   -0.000793   -0.000600
 step:   0.6497(harm=  0.6688)  dis= 0.00294  next Energy=  -352.929997 (dE=-0.163E-02)
 bond charge predicted
       N       E                     dE             d eps       ncg     rms          rms(c)
RMM:   1    -0.351618164148E+03   -0.24711E-02   -0.10866E+00   536   0.295E+00    0.166E-01
RMM:   2    -0.351616411440E+03    0.17527E-02   -0.74066E-03   536   0.204E-01    0.280E-02
RMM:   3    -0.351616528220E+03   -0.11678E-03   -0.90427E-04   560   0.492E-02    0.141E-02
RMM:   4    -0.351616534984E+03   -0.67647E-05   -0.52822E-05   550   0.134E-02    0.626E-03
RMM:   5    -0.351616536917E+03   -0.19322E-05   -0.75982E-06   453   0.437E-03    0.502E-03
RMM:   6    -0.351616538215E+03   -0.12984E-05   -0.10549E-06   344   0.235E-03    0.377E-03
RMM:   7    -0.351616539567E+03   -0.13519E-05   -0.81711E-07   344   0.208E-03    0.365E-03
[...]
RMM:   2    -0.351621054787E+03    0.13482E-03   -0.68967E-04   553   0.578E-02    0.246E-02
RMM:   3    -0.351621088595E+03   -0.33809E-04   -0.12956E-04   561   0.211E-02    0.139E-02
RMM:   4    -0.351621106985E+03   -0.18390E-04   -0.32107E-05   549   0.100E-02    0.126E-02
RMM:   5    -0.351621115204E+03   -0.82193E-05   -0.11291E-06   346   0.279E-03    0.104E-02
RMM:   6    -0.351621116172E+03   -0.96781E-06   -0.24578E-06   374   0.349E-03
  82 F= -.35293515E+03 E0= -.35293515E+03  d E =-.303505E-03
 ZBRENT: can't locate minimum, use default step
 trial-energy change:   -0.000304  1 .order   -0.000318   -0.000333   -0.000303
 step:   1.0987(harm=  3.0409)  dis= 0.00566  next Energy=  -352.936691 (dE=-0.184E-02)
 bond charge predicted
       N       E                     dE             d eps       ncg     rms          rms(c)
RMM:   1    -0.351622199008E+03   -0.10838E-02   -0.72848E-01   536   0.245E+00    0.120E-01
RMM:   2    -0.351621505970E+03    0.69304E-03   -0.58038E-03   544   0.170E-01    0.769E-03
RMM:   3    -0.351621593350E+03   -0.87380E-04   -0.58792E-04   598   0.364E-02    0.127E-02
RMM:   4    -0.351621590287E+03    0.30626E-05   -0.97943E-06   495   0.641E-03    0.992E-03
RMM:   5    -0.351621598426E+03   -0.81390E-05   -0.22559E-06   358   0.341E-03    0.647E-03
RMM:   6    -0.351621607834E+03   -0.94083E-05   -0.54157E-07   344   0.181E-03    0.465E-03
RMM:   7    -0.351621609123E+03   -0.12880E-05   -0.22912E-07   344   0.129E-03    0.400E-03
RMM:   8    -0.351621611110E+03   -0.19878E-05   -0.27959E-07   344   0.137E-03    0.362E-03
RMM:   9    -0.351621611895E+03   -0.78493E-06   -0.84958E-08   344   0.847E-04
  83 F= -.35293589E+03 E0= -.35293589E+03  d E =-.103959E-02
 curvature:  -9.19 expect dE=-0.526E-02 dE for cont linesearch -0.334E-03
 ZBRENT: increasing intervall
 opt :   2.7467  next Energy=  -352.936455 (dE=-0.161E-02)
 bond charge predicted
       N       E                     dE             d eps       ncg     rms          rms(c)
RMM:   1    -0.351624071235E+03   -0.24601E-02   -0.29158E+00   536   0.490E+00    0.238E-01
RMM:   2    -0.351621343427E+03    0.27278E-02   -0.22687E-02   544   0.338E-01    0.384E-02
RMM:   3    -0.351621645420E+03   -0.30199E-03   -0.23511E-03   601   0.716E-02    0.112E-02
RMM:   4    -0.351621645627E+03   -0.20762E-06   -0.35619E-05   554   0.126E-02    0.566E-03
RMM:   5    -0.351621670392E+03   -0.24764E-04   -0.45392E-06   410   0.368E-03    0.395E-03
RMM:   6    -0.351621671283E+03   -0.89092E-06   -0.67025E-07   344   0.161E-03
  84 F= -.35293644E+03 E0= -.35293644E+03  d E =-.159375E-02
 curvature: -15.69 expect dE=-0.176E-01 dE for cont linesearch -0.269E-05
 trial: gam= 0.97747 g(F)=  0.112E-02 g(S)=  0.000E+00 ort =-0.498E-04 (trialstep = 0.750E+00)
 search vector abs. value=  0.148E-01
 bond charge predicted
       N       E                     dE             d eps       ncg     rms          rms(c)
RMM:   1    -0.351622534928E+03   -0.86454E-03   -0.59759E-01   536   0.222E+00    0.115E-01
RMM:   2    -0.351621481957E+03    0.10530E-02   -0.52572E-03   544   0.159E-01    0.370E-02
RMM:   3    -0.351621104217E+03    0.37774E-03   -0.57338E-04   601   0.371E-02    0.473E-02
RMM:   4    -0.351621713815E+03   -0.60960E-03   -0.21545E-04   536   0.274E-02    0.307E-02
RMM:   5    -0.351621913152E+03   -0.19934E-03   -0.47383E-05   536   0.145E-02    0.132E-02
RMM:   6    -0.351621991838E+03   -0.78686E-04   -0.81616E-06   491   0.617E-03    0.960E-03
RMM:   7    -0.351622009261E+03   -0.17422E-04   -0.71276E-07   344   0.202E-03    0.897E-03
RMM:   8    -0.351622027518E+03   -0.18257E-04   -0.19815E-06   345   0.411E-03    0.551E-03
RMM:   9    -0.351622035758E+03   -0.82404E-05   -0.53337E-07   344   0.186E-03    0.440E-03
RMM:  10    -0.351622035004E+03    0.75383E-06   -0.19268E-07   344   0.110E-03
  85 F= -.35293689E+03 E0= -.35293689E+03  d E =-.453982E-03
 trial-energy change:   -0.000454  1 .order   -0.000437   -0.000802   -0.000072
 step:   0.8136(harm=  0.8233)  dis= 0.00434  next Energy=  -352.936897 (dE=-0.457E-03)
 bond charge predicted
       N       E                     dE             d eps       ncg     rms          rms(c)
RMM:   1    -0.351622032785E+03    0.29731E-05   -0.43526E-03   536   0.190E-01    0.104E-02
RMM:   2    -0.351622032098E+03    0.68710E-06   -0.33536E-05   546   0.130E-02    0.375E-03
RMM:   3    -0.351622032396E+03   -0.29767E-06   -0.23958E-06   393   0.261E-03    0.367E-03
RMM:   4    -0.351622032665E+03   -0.26959E-06   -0.28646E-07   268   0.942E-04
  86 F= -.35293690E+03 E0= -.35293690E+03  d E =-.459516E-03
 curvature:  -5.61 expect dE=-0.696E-02 dE for cont linesearch -0.143E-07
 trial: gam= 1.03908 g(F)=  0.124E-02 g(S)=  0.000E+00 ort =-0.614E-05 (trialstep = 0.656E+00)
 search vector abs. value=  0.173E-01
 bond charge predicted
       N       E                     dE             d eps       ncg     rms          rms(c)
RMM:   1    -0.351623089768E+03   -0.10574E-02   -0.72230E-01   536   0.243E+00    0.118E-01
RMM:   2    -0.351621868939E+03    0.12208E-02   -0.55930E-03   544   0.168E-01    0.563E-02
RMM:   3    -0.351622011473E+03   -0.14253E-03   -0.72138E-04   588   0.440E-02    0.241E-02
RMM:   4    -0.351622340077E+03   -0.32860E-03   -0.74603E-05   538   0.179E-02    0.122E-02
RMM:   5    -0.351622381028E+03   -0.40951E-04   -0.24189E-05   544   0.968E-03    0.124E-02
RMM:   6    -0.351622388333E+03   -0.73053E-05   -0.12544E-05   524   0.733E-03    0.546E-03
RMM:   7    -0.351622414928E+03   -0.26594E-04   -0.24346E-06   369   0.351E-03    0.439E-03
RMM:   8    -0.351622433178E+03   -0.18250E-04   -0.70579E-07   344   0.215E-03    0.381E-03
RMM:   9    -0.351622433169E+03    0.87639E-08   -0.20698E-07   344   0.151E-03
  87 F= -.35293741E+03 E0= -.35293741E+03  d E =-.510972E-03
 trial-energy change:   -0.000511  1 .order   -0.000518   -0.000810   -0.000226
 step:   0.9399(harm=  0.9099)  dis= 0.00535  next Energy=  -352.937459 (dE=-0.559E-03)
 bond charge predicted
       N       E                     dE             d eps       ncg     rms          rms(c)
RMM:   1    -0.351622548906E+03   -0.11573E-03   -0.13555E-01   536   0.105E+00    0.516E-02
RMM:   2    -0.351622423701E+03    0.12520E-03   -0.10992E-03   544   0.735E-02    0.692E-03
RMM:   3    -0.351622432603E+03   -0.89023E-05   -0.11604E-04   598   0.163E-02    0.508E-03
RMM:   4    -0.351622432148E+03    0.45520E-06   -0.15212E-06   355   0.274E-03
  88 F= -.35293746E+03 E0= -.35293746E+03  d E =-.558662E-03
 curvature:  -6.27 expect dE=-0.279E-02 dE for cont linesearch -0.585E-06
 trial: gam= 0.42529 g(F)=  0.446E-03 g(S)=  0.000E+00 ort =-0.401E-04 (trialstep = 0.713E+00)
 search vector abs. value=  0.353E-02
 bond charge predicted
       N       E                     dE             d eps       ncg     rms          rms(c)
RMM:   1    -0.351622478354E+03   -0.45751E-04   -0.21869E-01   536   0.132E+00    0.810E-02
RMM:   2    -0.351621170977E+03    0.13074E-02   -0.15087E-03   536   0.937E-02    0.852E-02
RMM:   3    -0.351621536779E+03   -0.36580E-03   -0.22740E-04   573   0.271E-02    0.103E-01
RMM:   4    -0.351621872547E+03   -0.33577E-03   -0.33858E-04   536   0.401E-02    0.541E-02
RMM:   5    -0.351622053668E+03   -0.18112E-03   -0.47718E-05   536   0.142E-02    0.362E-02
RMM:   6    -0.351622128025E+03   -0.74357E-04   -0.23123E-05   544   0.103E-02    0.248E-02
RMM:   7    -0.351622173935E+03   -0.45910E-04   -0.19039E-05   536   0.100E-02    0.122E-02
RMM:   8    -0.351622181040E+03   -0.71044E-05   -0.28889E-06   397   0.348E-03    0.924E-03
RMM:   9    -0.351622181513E+03   -0.47272E-06   -0.19363E-06   344   0.327E-03
  89 F= -.35293733E+03 E0= -.35293733E+03  d E =0.124873E-03
 trial-energy change:    0.000125  1 .order    0.000107   -0.000306    0.000520
 step:   0.2433(harm=  0.2636)  dis= 0.00056  next Energy=  -352.937509 (dE=-0.515E-04)
 bond charge predicted
       N       E                     dE             d eps       ncg     rms          rms(c)
RMM:   1    -0.351622560885E+03   -0.37984E-03   -0.94762E-02   536   0.869E-01    0.534E-02
RMM:   2    -0.351622424748E+03    0.13614E-03   -0.75511E-04   536   0.632E-02    0.814E-03
RMM:   3    -0.351622439206E+03   -0.14458E-04   -0.89165E-05   595   0.153E-02    0.559E-03
RMM:   4    -0.351622443960E+03   -0.47538E-05   -0.18558E-06   369   0.300E-03    0.406E-03
RMM:   5    -0.351622444256E+03   -0.29606E-06   -0.60541E-07   344   0.167E-03
  90 F= -.35293751E+03 E0= -.35293751E+03  d E =-.549597E-04
 curvature:  -1.08 expect dE=-0.655E-04 dE for cont linesearch -0.449E-06
 trial: gam= 0.02675 g(F)=  0.604E-04 g(S)=  0.000E+00 ort = 0.383E-04 (trialstep = 0.619E+00)
 search vector abs. value=  0.650E-04
 bond charge predicted
       N       E                     dE             d eps       ncg     rms          rms(c)
RMM:   1    -0.351622488453E+03   -0.44493E-04   -0.42232E-03   536   0.182E-01    0.120E-02
RMM:   2    -0.351622404117E+03    0.84336E-04   -0.27788E-05   536   0.132E-02    0.628E-03
RMM:   3    -0.351622449015E+03   -0.44899E-04   -0.84362E-06   525   0.618E-03    0.818E-03
RMM:   4    -0.351622463883E+03   -0.14868E-04   -0.11305E-05   512   0.622E-03    0.617E-03
RMM:   5    -0.351622472538E+03   -0.86544E-05   -0.44455E-07   344   0.161E-03    0.570E-03
RMM:   6    -0.351622481290E+03   -0.87519E-05   -0.71192E-07   344   0.185E-03    0.455E-03
RMM:   7    -0.351622482952E+03   -0.16624E-05   -0.38301E-07   344   0.146E-03    0.402E-03
RMM:   8    -0.351622486491E+03   -0.35390E-05   -0.53127E-07   343   0.150E-03    0.363E-03
RMM:   9    -0.351622487889E+03   -0.13976E-05   -0.31423E-07   328   0.117E-03    0.363E-03
RMM:  10    -0.351622489631E+03   -0.17422E-05    0.00000E+00   152   0.462E-04    0.361E-03
RMM:  11    -0.351622490003E+03   -0.37221E-06   -0.31605E-08   232   0.573E-04
  91 F= -.35293755E+03 E0= -.35293755E+03  d E =-.385691E-04
 trial-energy change:   -0.000039  1 .order   -0.000030   -0.000038   -0.000022
 step:   0.7934(harm=  1.5132)  dis= 0.00018  next Energy=  -352.937555 (dE=-0.419E-04)
 bond charge predicted
       N       E                     dE             d eps       ncg     rms          rms(c)
RMM:   1    -0.351622498491E+03   -0.88603E-05   -0.33644E-04   536   0.513E-02    0.477E-03
RMM:   2    -0.351622499287E+03   -0.79622E-06   -0.20026E-06   346   0.365E-03    0.367E-03
RMM:   3    -0.351622499708E+03   -0.42037E-06   -0.45256E-07   332   0.157E-03    0.368E-03
RMM:   4    -0.351622499896E+03   -0.18781E-06   -0.12263E-07   270   0.791E-04
  92 F= -.35293756E+03 E0= -.35293756E+03  d E =-.464324E-04
 curvature:  -0.28 expect dE=-0.124E-04 dE for cont linesearch -0.331E-05
 trial: gam= 0.28626 g(F)=  0.441E-04 g(S)=  0.000E+00 ort = 0.276E-04 (trialstep = 0.651E+00)
 search vector abs. value=  0.652E-04
 bond charge predicted
       N       E                     dE             d eps       ncg     rms          rms(c)
RMM:   1    -0.351622518422E+03   -0.18714E-04   -0.14413E-03   536   0.110E-01    0.968E-03
RMM:   2    -0.351622463108E+03    0.55315E-04   -0.21761E-05   536   0.958E-03    0.578E-03
RMM:   3    -0.351622494680E+03   -0.31572E-04   -0.62612E-06   444   0.518E-03    0.775E-03
RMM:   4    -0.351622510526E+03   -0.15846E-04   -0.26426E-06   398   0.368E-03    0.484E-03
RMM:   5    -0.351622509580E+03    0.94581E-06   -0.46628E-07   344   0.177E-03
  93 F= -.35293758E+03 E0= -.35293758E+03  d E =-.180453E-04
 trial-energy change:   -0.000018  1 .order   -0.000024   -0.000034   -0.000015
 step:   1.1619(harm=  1.1619)  dis= 0.00021  next Energy=  -352.937589 (dE=-0.302E-04)
 bond charge predicted
       N       E                     dE             d eps       ncg     rms          rms(c)
RMM:   1    -0.351622510238E+03    0.28785E-06   -0.88734E-04   536   0.862E-02    0.938E-03
RMM:   2    -0.351622510399E+03   -0.16142E-06   -0.98683E-06   495   0.671E-03    0.737E-03
RMM:   3    -0.351622510463E+03   -0.63519E-07   -0.50021E-07   344   0.159E-03    0.681E-03
RMM:   4    -0.351622513154E+03   -0.26917E-05   -0.76390E-07   344   0.189E-03    0.538E-03
RMM:   5    -0.351622513645E+03   -0.49062E-06   -0.11382E-06   344   0.222E-03
  94 F= -.35293759E+03 E0= -.35293759E+03  d E =-.286599E-04
 curvature:  -0.73 expect dE=-0.717E-04 dE for cont linesearch -0.181E-10
 trial: gam= 2.49373 g(F)=  0.984E-04 g(S)=  0.000E+00 ort =-0.402E-07 (trialstep = 0.975E-01)
 search vector abs. value=  0.504E-03
 bond charge predicted
       N       E                     dE             d eps       ncg     rms          rms(c)
RMM:   1    -0.351622523678E+03   -0.10524E-04   -0.65668E-04   536   0.715E-02    0.562E-03
RMM:   2    -0.351622524464E+03   -0.78586E-06   -0.37234E-06   437   0.489E-03    0.389E-03
RMM:   3    -0.351622522524E+03    0.19402E-05   -0.44008E-07   344   0.155E-03    0.417E-03
RMM:   4    -0.351622522972E+03   -0.44836E-06   -0.45543E-07   344   0.141E-03
  95 F= -.35293760E+03 E0= -.35293760E+03  d E =-.966831E-05
 ZBRENT: can't locate minimum, use default step
 trial-energy change:   -0.000010  1 .order   -0.000009   -0.000010   -0.000008
 step:   0.3901(harm=  0.8330)  dis= 0.00022  next Energy=  -352.937629 (dE=-0.410E-04)
 bond charge predicted
       N       E                     dE             d eps       ncg     rms          rms(c)
RMM:   1    -0.351622553705E+03   -0.31181E-04   -0.59340E-03   536   0.214E-01    0.137E-02
RMM:   2    -0.351622542181E+03    0.11524E-04   -0.40609E-05   536   0.150E-02    0.419E-03
RMM:   3    -0.351622544542E+03   -0.23609E-05   -0.28431E-06   399   0.281E-03    0.465E-03
RMM:   4    -0.351622547406E+03   -0.28640E-05   -0.35467E-07   325   0.120E-03    0.414E-03
RMM:   5    -0.351622547993E+03   -0.58678E-06   -0.25023E-07   344   0.108E-03
  96 F= -.35293762E+03 E0= -.35293762E+03  d E =-.356915E-04
 curvature:  -1.36 expect dE=-0.116E-03 dE for cont linesearch -0.106E-04
 ZBRENT: increasing intervall
 opt :   0.9753  next Energy=  -352.937646 (dE=-0.581E-04)
 bond charge predicted
       N       E                     dE             d eps       ncg     rms          rms(c)
RMM:   1    -0.351622601746E+03   -0.54340E-04   -0.23700E-02   536   0.428E-01    0.274E-02
RMM:   2    -0.351622560977E+03    0.40769E-04   -0.16115E-04   536   0.299E-02    0.580E-03
RMM:   3    -0.351622568153E+03   -0.71759E-05   -0.15658E-05   499   0.606E-03    0.401E-03
RMM:   4    -0.351622569614E+03   -0.14613E-05   -0.48721E-07   344   0.166E-03    0.406E-03
RMM:   5    -0.351622570225E+03   -0.61145E-06   -0.83573E-08   257   0.692E-04
  97 F= -.35293765E+03 E0= -.35293765E+03  d E =-.598424E-04
 curvature:  -2.88 expect dE=-0.360E-03 dE for cont linesearch -0.767E-06
 trial: gam= 0.64122 g(F)=  0.125E-03 g(S)=  0.000E+00 ort = 0.116E-04 (trialstep = 0.273E+00)
 search vector abs. value=  0.347E-03
 bond charge predicted
       N       E                     dE             d eps       ncg     rms          rms(c)
RMM:   1    -0.351622623043E+03   -0.53429E-04   -0.40719E-03   536   0.174E-01    0.132E-02
RMM:   2    -0.351622611432E+03    0.11611E-04   -0.34527E-05   536   0.136E-02    0.646E-03
RMM:   3    -0.351622615434E+03   -0.40018E-05   -0.92604E-06   504   0.632E-03    0.551E-03
RMM:   4    -0.351622619967E+03   -0.45329E-05   -0.43124E-06   437   0.396E-03    0.866E-03
RMM:   5    -0.351622623309E+03   -0.33416E-05   -0.16884E-06   344   0.290E-03    0.605E-03
RMM:   6    -0.351622620688E+03    0.26207E-05   -0.31910E-06   410   0.351E-03    0.385E-03
RMM:   7    -0.351622620437E+03    0.25061E-06   -0.17086E-07   344   0.107E-03
  98 F= -.35293768E+03 E0= -.35293768E+03  d E =-.324933E-04
 trial-energy change:   -0.000032  1 .order   -0.000027   -0.000036   -0.000017
 step:   0.3463(harm=  0.5181)  dis= 0.00022  next Energy=  -352.937683 (dE=-0.349E-04)
 bond charge predicted
       N       E                     dE             d eps       ncg     rms          rms(c)
RMM:   1    -0.351622630335E+03   -0.96467E-05   -0.29271E-04   536   0.467E-02    0.550E-03
RMM:   2    -0.351622630040E+03    0.29438E-06   -0.17085E-06   353   0.346E-03    0.403E-03
RMM:   3    -0.351622629423E+03    0.61749E-06   -0.33820E-07   344   0.140E-03    0.387E-03
RMM:   4    -0.351622628919E+03    0.50392E-06   -0.17711E-07   320   0.938E-04
  99 F= -.35293768E+03 E0= -.35293768E+03  d E =-.362235E-04
 curvature:  -0.35 expect dE=-0.168E-04 dE for cont linesearch -0.185E-05
 trial: gam= 0.11066 g(F)=  0.486E-04 g(S)=  0.000E+00 ort = 0.432E-04 (trialstep = 0.288E+00)
 search vector abs. value=  0.624E-04
 bond charge predicted
       N       E                     dE             d eps       ncg     rms          rms(c)
RMM:   1    -0.351622640735E+03   -0.11312E-04   -0.43900E-04   536   0.568E-02    0.475E-03
RMM:   2    -0.351622642479E+03   -0.17438E-05   -0.42570E-06   430   0.448E-03    0.459E-03
RMM:   3    -0.351622642843E+03   -0.36419E-06   -0.15652E-06   345   0.280E-03    0.367E-03
RMM:   4    -0.351622641500E+03    0.13428E-05   -0.51623E-06   459   0.420E-03    0.619E-03
RMM:   5    -0.351622639109E+03    0.23913E-05   -0.13283E-06   344   0.256E-03    0.432E-03
RMM:   6    -0.351622638813E+03    0.29595E-06   -0.19006E-06   368   0.277E-03
 100 F= -.35293770E+03 E0= -.35293770E+03  d E =-.124629E-04
 ZBRENT: can't locate minimum, use default step
 trial-energy change:   -0.000012  1 .order   -0.000014   -0.000015   -0.000013
 step:   1.1509(harm=  1.6542)  dis= 0.00020  next Energy=  -352.937728 (dE=-0.441E-04)
 bond charge predicted
       N       E                     dE             d eps       ncg     rms          rms(c)
RMM:   1    -0.351622662276E+03   -0.23168E-04   -0.39380E-03   536   0.170E-01    0.978E-03
RMM:   2    -0.351622655677E+03    0.65990E-05   -0.31128E-05   536   0.125E-02    0.487E-03
RMM:   3    -0.351622654646E+03    0.10316E-05   -0.28844E-06   394   0.284E-03    0.445E-03
RMM:   4    -0.351622659867E+03   -0.52210E-05   -0.37005E-07   344   0.123E-03    0.439E-03
RMM:   5    -0.351622661200E+03   -0.13336E-05   -0.57002E-07   344   0.159E-03    0.374E-03
RMM:   6    -0.351622660975E+03    0.22566E-06   -0.58103E-07   344   0.160E-03
 101 F= -.35293773E+03 E0= -.35293773E+03  d E =-.423565E-04
 curvature:  -0.84 expect dE=-0.210E-04 dE for cont linesearch -0.260E-05
 trial: gam= 0.35948 g(F)=  0.252E-04 g(S)=  0.000E+00 ort = 0.139E-04 (trialstep = 0.460E+00)
 search vector abs. value=  0.432E-04
 bond charge predicted
       N       E                     dE             d eps       ncg     rms          rms(c)
RMM:   1    -0.351622677304E+03   -0.16103E-04   -0.75162E-04   536   0.768E-02    0.769E-03
RMM:   2    -0.351622658543E+03    0.18761E-04   -0.19154E-05   536   0.928E-03    0.621E-03
RMM:   3    -0.351622661545E+03   -0.30020E-05   -0.43227E-07   344   0.161E-03    0.572E-03
RMM:   4    -0.351622661893E+03   -0.34795E-06   -0.15799E-06   344   0.273E-03
 102 F= -.35293772E+03 E0= -.35293772E+03  d E =0.660039E-05
 trial-energy change:    0.000007  1 .order   -0.000007   -0.000014    0.000001
 step:   0.4358(harm=  0.4358)  dis= 0.00007  next Energy=  -352.937733 (dE=-0.657E-05)
 bond charge predicted
       N       E                     dE             d eps       ncg     rms          rms(c)
RMM:   1    -0.351622662742E+03   -0.11974E-05   -0.27154E-06   371   0.454E-03    0.364E-03
RMM:   2    -0.351622664431E+03   -0.16888E-05   -0.23886E-07   344   0.122E-03    0.359E-03
RMM:   3    -0.351622664763E+03   -0.33248E-06   -0.29780E-09   158   0.417E-04    0.359E-03
RMM:   4    -0.351622665619E+03   -0.85526E-06   -0.39000E-08   241   0.585E-04
 103 F= -.35293772E+03 E0= -.35293772E+03  d E =0.247427E-05
 curvature:  -0.31 expect dE=-0.710E-05 dE for cont linesearch -0.967E-08
 trial: gam= 1.07493 g(F)=  0.227E-04 g(S)=  0.000E+00 ort = 0.116E-05 (trialstep = 0.262E+00)
 search vector abs. value=  0.752E-04
 reached required accuracy - stopping structural energy minimisation
 writing wavefunctions
