  93  93   0   0
  0.1016658E+02  0.9814900E-09  0.9814900E-09  0.9814900E-09  0.5000000E-15
  1.000000000000000E-004
  CAR 
 ice                                     
      9.68549967    -25.87086346  301     -1.92946321      1.00000000
    -25.871  0.0000E+00  0.0000E+00
    -25.752  0.0000E+00  0.0000E+00
    -25.634  0.0000E+00  0.0000E+00
    -25.515  0.0000E+00  0.0000E+00
    -25.397  0.0000E+00  0.0000E+00
    -25.278  0.0000E+00  0.0000E+00
    -25.160  0.0000E+00  0.0000E+00
    -25.041  0.0000E+00  0.0000E+00
    -24.923  0.0000E+00  0.0000E+00
    -24.804  0.0000E+00  0.0000E+00
    -24.686  0.3032E-02  0.3594E-03
    -24.567  0.2936E-01  0.3839E-02
    -24.449  0.3079E+00  0.4033E-01
    -24.330  0.2706E+01  0.3610E+00
    -24.212  0.8802E+01  0.1404E+01
    -24.093  0.4383E+01  0.1924E+01
    -23.975  0.5811E+00  0.1993E+01
    -23.856  0.5643E-01  0.1999E+01
    -23.737  0.0000E+00  0.2000E+01
    -23.619  0.5117E-02  0.2001E+01
    -23.500  0.5328E-01  0.2007E+01
    -23.382  0.5565E+00  0.2073E+01
    -23.263  0.5019E+01  0.2668E+01
    -23.145  0.2025E+02  0.5068E+01
    -23.026  0.2591E+02  0.8139E+01
    -22.908  0.1380E+02  0.9774E+01
    -22.789  0.5277E+01  0.1041E+02
    -22.671  0.1145E+02  0.1176E+02
    -22.552  0.1900E+02  0.1402E+02
    -22.434  0.2946E+02  0.1751E+02
    -22.315  0.2597E+02  0.2059E+02
    -22.197  0.2897E+02  0.2403E+02
    -22.078  0.2348E+02  0.2682E+02
    -21.960  0.2843E+02  0.3019E+02
    -21.841  0.3408E+02  0.3423E+02
    -21.723  0.3173E+02  0.3800E+02
    -21.604  0.2645E+02  0.4113E+02
    -21.486  0.2411E+02  0.4400E+02
    -21.367  0.1638E+02  0.4594E+02
    -21.249  0.1855E+02  0.4814E+02
    -21.130  0.3180E+02  0.5192E+02
    -21.011  0.1595E+02  0.5381E+02
    -20.893  0.7163E+01  0.5466E+02
    -20.774  0.8687E+01  0.5570E+02
    -20.656  0.2326E+01  0.5597E+02
    -20.537  0.7487E+00  0.5606E+02
    -20.419  0.3941E+01  0.5653E+02
    -20.300  0.9266E+01  0.5763E+02
    -20.182  0.5984E+01  0.5834E+02
    -20.063  0.9316E+01  0.5944E+02
    -19.945  0.4918E+01  0.6003E+02
    -19.826  0.5831E+01  0.6072E+02
    -19.708  0.8358E+01  0.6172E+02
    -19.589  0.2109E+01  0.6197E+02
    -19.471  0.2289E+00  0.6200E+02
    -19.352  0.0000E+00  0.6200E+02
    -19.234  0.0000E+00  0.6200E+02
    -19.115  0.0000E+00  0.6200E+02
    -18.997  0.0000E+00  0.6200E+02
    -18.878  0.0000E+00  0.6200E+02
    -18.760  0.0000E+00  0.6200E+02
    -18.641  0.0000E+00  0.6200E+02
    -18.523  0.0000E+00  0.6200E+02
    -18.404  0.0000E+00  0.6200E+02
    -18.286  0.0000E+00  0.6200E+02
    -18.167  0.0000E+00  0.6200E+02
    -18.048  0.0000E+00  0.6200E+02
    -17.930  0.0000E+00  0.6200E+02
    -17.811  0.0000E+00  0.6200E+02
    -17.693  0.0000E+00  0.6200E+02
    -17.574  0.0000E+00  0.6200E+02
    -17.456  0.0000E+00  0.6200E+02
    -17.337  0.0000E+00  0.6200E+02
    -17.219  0.0000E+00  0.6200E+02
    -17.100  0.0000E+00  0.6200E+02
    -16.982  0.0000E+00  0.6200E+02
    -16.863  0.0000E+00  0.6200E+02
    -16.745  0.0000E+00  0.6200E+02
    -16.626  0.0000E+00  0.6200E+02
    -16.508  0.0000E+00  0.6200E+02
    -16.389  0.0000E+00  0.6200E+02
    -16.271  0.0000E+00  0.6200E+02
    -16.152  0.0000E+00  0.6200E+02
    -16.034  0.0000E+00  0.6200E+02
    -15.915  0.0000E+00  0.6200E+02
    -15.797  0.0000E+00  0.6200E+02
    -15.678  0.0000E+00  0.6200E+02
    -15.560  0.0000E+00  0.6200E+02
    -15.441  0.0000E+00  0.6200E+02
    -15.322  0.0000E+00  0.6200E+02
    -15.204  0.0000E+00  0.6200E+02
    -15.085  0.0000E+00  0.6200E+02
    -14.967  0.0000E+00  0.6200E+02
    -14.848  0.0000E+00  0.6200E+02
    -14.730  0.0000E+00  0.6200E+02
    -14.611  0.0000E+00  0.6200E+02
    -14.493  0.0000E+00  0.6200E+02
    -14.374  0.0000E+00  0.6200E+02
    -14.256  0.0000E+00  0.6200E+02
    -14.137  0.0000E+00  0.6200E+02
    -14.019  0.0000E+00  0.6200E+02
    -13.900  0.0000E+00  0.6200E+02
    -13.782  0.0000E+00  0.6200E+02
    -13.663  0.0000E+00  0.6200E+02
    -13.545  0.0000E+00  0.6200E+02
    -13.426  0.0000E+00  0.6200E+02
    -13.308  0.0000E+00  0.6200E+02
    -13.189  0.0000E+00  0.6200E+02
    -13.071  0.0000E+00  0.6200E+02
    -12.952  0.0000E+00  0.6200E+02
    -12.834  0.0000E+00  0.6200E+02
    -12.715  0.0000E+00  0.6200E+02
    -12.596  0.0000E+00  0.6200E+02
    -12.478  0.0000E+00  0.6200E+02
    -12.359  0.7041E-03  0.6200E+02
    -12.241  0.6828E-02  0.6200E+02
    -12.122  0.7273E-01  0.6201E+02
    -12.004  0.7416E+00  0.6210E+02
    -11.885  0.5157E+01  0.6271E+02
    -11.767  0.8541E+01  0.6372E+02
    -11.648  0.3169E+01  0.6410E+02
    -11.530  0.6802E+01  0.6490E+02
    -11.411  0.1339E+02  0.6649E+02
    -11.293  0.1043E+02  0.6773E+02
    -11.174  0.4671E+01  0.6828E+02
    -11.056  0.9115E+01  0.6937E+02
    -10.937  0.7700E+01  0.7028E+02
    -10.819  0.9599E+01  0.7142E+02
    -10.700  0.5179E+01  0.7203E+02
    -10.582  0.6971E+01  0.7286E+02
    -10.463  0.1803E+02  0.7500E+02
    -10.345  0.1761E+02  0.7709E+02
    -10.226  0.2210E+02  0.7971E+02
    -10.108  0.3084E+02  0.8336E+02
     -9.989  0.2313E+02  0.8611E+02
     -9.871  0.2346E+02  0.8889E+02
     -9.752  0.2864E+02  0.9229E+02
     -9.633  0.3795E+02  0.9680E+02
     -9.515  0.2460E+02  0.9972E+02
     -9.396  0.1539E+02  0.1015E+03
     -9.278  0.1565E+02  0.1034E+03
     -9.159  0.1839E+02  0.1056E+03
     -9.041  0.2904E+02  0.1090E+03
     -8.922  0.3440E+02  0.1131E+03
     -8.804  0.2261E+02  0.1158E+03
     -8.685  0.1560E+02  0.1176E+03
     -8.567  0.1861E+02  0.1199E+03
     -8.448  0.1505E+02  0.1216E+03
     -8.330  0.1220E+02  0.1231E+03
     -8.211  0.1797E+02  0.1252E+03
     -8.093  0.1197E+02  0.1267E+03
     -7.974  0.1096E+02  0.1280E+03
     -7.856  0.1285E+02  0.1295E+03
     -7.737  0.1594E+02  0.1314E+03
     -7.619  0.8906E+01  0.1324E+03
     -7.500  0.1290E+02  0.1340E+03
     -7.382  0.1874E+02  0.1362E+03
     -7.263  0.2538E+02  0.1392E+03
     -7.145  0.2232E+02  0.1418E+03
     -7.026  0.2103E+02  0.1443E+03
     -6.907  0.2529E+02  0.1473E+03
     -6.789  0.2666E+02  0.1505E+03
     -6.670  0.2315E+02  0.1532E+03
     -6.552  0.2013E+02  0.1556E+03
     -6.433  0.1803E+02  0.1578E+03
     -6.315  0.1685E+02  0.1598E+03
     -6.196  0.1799E+02  0.1619E+03
     -6.078  0.2237E+02  0.1646E+03
     -5.959  0.2756E+02  0.1678E+03
     -5.841  0.3413E+02  0.1719E+03
     -5.722  0.3227E+02  0.1757E+03
     -5.604  0.2553E+02  0.1787E+03
     -5.485  0.2142E+02  0.1813E+03
     -5.367  0.1861E+02  0.1835E+03
     -5.248  0.1724E+02  0.1855E+03
     -5.130  0.2152E+02  0.1881E+03
     -5.011  0.1348E+02  0.1897E+03
     -4.893  0.4757E+01  0.1903E+03
     -4.774  0.1336E+02  0.1919E+03
     -4.656  0.2611E+02  0.1950E+03
     -4.537  0.3834E+02  0.1995E+03
     -4.419  0.4452E+02  0.2048E+03
     -4.300  0.4860E+02  0.2105E+03
     -4.181  0.5627E+02  0.2172E+03
     -4.063  0.5129E+02  0.2233E+03
     -3.944  0.3664E+02  0.2276E+03
     -3.826  0.2759E+02  0.2309E+03
     -3.707  0.3546E+02  0.2351E+03
     -3.589  0.3385E+02  0.2392E+03
     -3.470  0.3166E+02  0.2429E+03
     -3.352  0.2037E+02  0.2453E+03
     -3.233  0.8740E+01  0.2464E+03
     -3.115  0.9556E+01  0.2475E+03
     -2.996  0.3573E+01  0.2479E+03
     -2.878  0.4373E+00  0.2480E+03
     -2.759  0.0000E+00  0.2480E+03
     -2.641  0.0000E+00  0.2480E+03
     -2.522  0.0000E+00  0.2480E+03
     -2.404  0.0000E+00  0.2480E+03
     -2.285  0.0000E+00  0.2480E+03
     -2.167  0.0000E+00  0.2480E+03
     -2.048  0.0000E+00  0.2480E+03
     -1.930  0.0000E+00  0.2480E+03
     -1.811  0.0000E+00  0.2480E+03
     -1.693  0.0000E+00  0.2480E+03
     -1.574  0.0000E+00  0.2480E+03
     -1.455  0.0000E+00  0.2480E+03
     -1.337  0.0000E+00  0.2480E+03
     -1.218  0.0000E+00  0.2480E+03
     -1.100  0.0000E+00  0.2480E+03
     -0.981  0.0000E+00  0.2480E+03
     -0.863  0.0000E+00  0.2480E+03
     -0.744  0.0000E+00  0.2480E+03
     -0.626  0.0000E+00  0.2480E+03
     -0.507  0.0000E+00  0.2480E+03
     -0.389  0.0000E+00  0.2480E+03
     -0.270  0.0000E+00  0.2480E+03
     -0.152  0.0000E+00  0.2480E+03
     -0.033  0.6339E-06  0.2480E+03
      0.085  0.1612E-03  0.2480E+03
      0.204  0.2064E-02  0.2480E+03
      0.322  0.2215E-01  0.2480E+03
      0.441  0.2083E+00  0.2480E+03
      0.559  0.1170E+01  0.2482E+03
      0.678  0.3287E+01  0.2486E+03
      0.796  0.5502E+01  0.2492E+03
      0.915  0.4784E+01  0.2498E+03
      1.033  0.1642E+01  0.2500E+03
      1.152  0.2327E+00  0.2500E+03
      1.270  0.1315E+00  0.2500E+03
      1.389  0.6989E+00  0.2501E+03
      1.508  0.2295E+01  0.2504E+03
      1.626  0.5366E+01  0.2510E+03
      1.745  0.5958E+01  0.2517E+03
      1.863  0.3392E+01  0.2521E+03
      1.982  0.4233E+01  0.2526E+03
      2.100  0.6088E+01  0.2533E+03
      2.219  0.5706E+01  0.2540E+03
      2.337  0.5119E+01  0.2546E+03
      2.456  0.5806E+01  0.2553E+03
      2.574  0.5956E+01  0.2560E+03
      2.693  0.5911E+01  0.2567E+03
      2.811  0.7181E+01  0.2576E+03
      2.930  0.7948E+01  0.2585E+03
      3.048  0.9252E+01  0.2596E+03
      3.167  0.9396E+01  0.2607E+03
      3.285  0.8859E+01  0.2618E+03
      3.404  0.9700E+01  0.2629E+03
      3.522  0.9622E+01  0.2641E+03
      3.641  0.1001E+02  0.2653E+03
      3.759  0.1067E+02  0.2665E+03
      3.878  0.1209E+02  0.2680E+03
      3.996  0.1299E+02  0.2695E+03
      4.115  0.1309E+02  0.2711E+03
      4.234  0.1323E+02  0.2726E+03
      4.352  0.1307E+02  0.2742E+03
      4.471  0.1448E+02  0.2759E+03
      4.589  0.1512E+02  0.2777E+03
      4.708  0.1475E+02  0.2794E+03
      4.826  0.1541E+02  0.2813E+03
      4.945  0.1649E+02  0.2832E+03
      5.063  0.1728E+02  0.2853E+03
      5.182  0.1872E+02  0.2875E+03
      5.300  0.2023E+02  0.2899E+03
      5.419  0.2067E+02  0.2924E+03
      5.537  0.2083E+02  0.2948E+03
      5.656  0.2160E+02  0.2974E+03
      5.774  0.2251E+02  0.3001E+03
      5.893  0.2225E+02  0.3027E+03
      6.011  0.2275E+02  0.3054E+03
      6.130  0.2530E+02  0.3084E+03
      6.248  0.2665E+02  0.3116E+03
      6.367  0.2636E+02  0.3147E+03
      6.485  0.2563E+02  0.3177E+03
      6.604  0.2518E+02  0.3207E+03
      6.722  0.2548E+02  0.3237E+03
      6.841  0.2505E+02  0.3267E+03
      6.960  0.2455E+02  0.3296E+03
      7.078  0.2404E+02  0.3325E+03
      7.197  0.2163E+02  0.3351E+03
      7.315  0.1919E+02  0.3373E+03
      7.434  0.1698E+02  0.3393E+03
      7.552  0.1439E+02  0.3411E+03
      7.671  0.1170E+02  0.3424E+03
      7.789  0.8154E+01  0.3434E+03
      7.908  0.3604E+01  0.3438E+03
      8.026  0.1032E+01  0.3440E+03
      8.145  0.2257E+00  0.3440E+03
      8.263  0.2941E-01  0.3440E+03
      8.382  0.2232E-02  0.3440E+03
      8.500  0.0000E+00  0.3440E+03
      8.619  0.0000E+00  0.3440E+03
      8.737  0.0000E+00  0.3440E+03
      8.856  0.0000E+00  0.3440E+03
      8.974  0.0000E+00  0.3440E+03
      9.093  0.0000E+00  0.3440E+03
      9.211  0.0000E+00  0.3440E+03
      9.330  0.0000E+00  0.3440E+03
      9.448  0.0000E+00  0.3440E+03
      9.567  0.0000E+00  0.3440E+03
      9.685  0.0000E+00  0.3440E+03
