       N       E                     dE             d eps       ncg     rms          rms(c)
RMM:   1     0.332092671721E+04    0.33209E+04   -0.74360E+04 86688   0.878E+02
RMM:   2     0.105156427078E+04   -0.22694E+04   -0.24360E+04 86688   0.253E+02
RMM:   3     0.883950934593E+02   -0.96317E+03   -0.10248E+04 86688   0.187E+02
RMM:   4    -0.343029360988E+03   -0.43142E+03   -0.36708E+03 86688   0.130E+02
RMM:   5    -0.450986683579E+03   -0.10796E+03   -0.98150E+02 86688   0.686E+01
RMM:   6    -0.478813248425E+03   -0.27827E+02   -0.25382E+02 86688   0.354E+01
RMM:   7    -0.486219478106E+03   -0.74062E+01   -0.70900E+01 86688   0.181E+01
RMM:   8    -0.488447013090E+03   -0.22275E+01   -0.20991E+01 86688   0.965E+00
RMM:   9    -0.489325701403E+03   -0.87869E+00   -0.86271E+00221682   0.513E+00
RMM:  10    -0.489448193200E+03   -0.12249E+00   -0.11546E+00235840   0.149E+00
RMM:  11    -0.489450404578E+03   -0.22114E-02   -0.38688E-02221807   0.315E-01
RMM:  12    -0.489451050558E+03   -0.64598E-03   -0.63357E-03223342   0.818E-02    0.396E+01
RMM:  13    -0.448209290038E+03    0.41242E+02   -0.14590E+02209840   0.242E+01    0.152E+01
RMM:  14    -0.446967362584E+03    0.12419E+01   -0.53813E+00217465   0.415E+00    0.961E+00
RMM:  15    -0.446449680497E+03    0.51768E+00   -0.16337E+00215387   0.355E+00    0.134E+00
RMM:  16    -0.446404820960E+03    0.44860E-01   -0.28000E-01221260   0.945E-01    0.529E-01
RMM:  17    -0.446413355353E+03   -0.85344E-02   -0.46337E-02209406   0.412E-01    0.328E-01
RMM:  18    -0.446410051144E+03    0.33042E-02   -0.92950E-03217828   0.212E-01    0.926E-02
RMM:  19    -0.446409074699E+03    0.97644E-03   -0.25058E-03218502   0.884E-02    0.437E-02
RMM:  20    -0.446408880243E+03    0.19446E-03   -0.56930E-04219255   0.391E-02    0.209E-02
RMM:  21    -0.446408854659E+03    0.25584E-04   -0.10987E-04219559   0.178E-02    0.105E-02
RMM:  22    -0.446408848881E+03    0.57780E-05   -0.26308E-05210229   0.918E-03    0.363E-03
RMM:  23    -0.446408848794E+03    0.87453E-07   -0.49833E-06192084   0.431E-03
   1 F= -.44949973E+03 E0= -.44949973E+03  d E =-.419754E-10
