    #         X           Y           Z       CHARGE      MIN DIST   ATOMIC VOL
 --------------------------------------------------------------------------------
    1    0.000000    0.000000    0.000000   10.999121     1.266394   122.304354
    2    2.940319    1.697560    2.329836   10.962377     1.255229    17.283208
    3    0.000066    3.396456    4.636744   10.970044     1.258148    17.321382
    4    7.348718   12.728403    6.961020   10.991908     1.271694    97.148356
    5   13.227930    2.545716    0.000000   11.017344     1.283384   145.953799
    6    1.470071    4.244180    2.331410   10.979175     1.251371    17.375537
    7    1.470711    0.849098    4.633595   10.956938     1.250752    17.255687
    8   13.228349    2.544812    6.964956   11.056378     1.261224   162.501041
    9    1.469770    2.545716    0.000000   11.045780     1.265736   113.977911
   10   -1.470042    4.244103    2.331459   10.985453     1.257576    17.410160
   11    4.411375    0.847838    4.636400   10.968178     1.263138    17.319607
   12    1.469292    2.544787    6.965055   11.051485     1.275272   126.171503
   13    2.939540    0.000000    0.000000   11.029974     1.277207   234.237719
   14    0.000073    1.698782    2.329098   10.918928     1.251441    17.051499
   15    2.940032    3.396304    4.636351   10.983049     1.252546    17.396843
   16    2.938548    0.000089    6.965055   11.024505     1.288515   220.557102
   17    5.879080    0.000000    0.000000   11.056521     1.279084   192.103019
   18    8.817738    1.697865    2.328655   10.941757     1.249535    17.162471
   19    5.879065    3.394331    4.636941   10.952928     1.264342    17.233493
   20   -1.470226   12.728326    6.969876   11.049736     1.279757   145.893430
   21    4.409310    2.545716    0.000000   11.041906     1.276717   146.187284
   22    7.348747    4.242894    2.332247   10.925507     1.268380    17.067479
   23    7.348732    0.848156    4.637335   10.971123     1.266647    17.333811
   24    4.408957    2.545513    6.967220   11.050024     1.291618   163.976524
   25    7.348850    2.545716    0.000000   11.038306     1.277943   148.154594
   26    4.410464    4.243314    2.328606   10.980292     1.252419    17.367547
   27   10.286281    0.847940    4.636351   10.961865     1.257420    17.281433
   28    7.348674    2.545894    6.969483   11.014749     1.280781   132.915044
   29    8.818620    0.000000    0.000000   11.056800     1.274097   181.360050
   30    5.880057    1.697878    2.328655   10.965560     1.265910    17.291198
   31    8.818466    3.394369    4.636941   10.958845     1.261586    17.264565
   32    1.470005   12.728530    6.969680   11.060953     1.275630   144.769507
   33   11.758160    0.000000    0.000000   11.053729     1.283384   193.455100
   34   11.757631    3.396367    4.636351   10.986196     1.257412    17.413711
   35   11.759035    0.000064    6.964956   11.032721     1.261169   155.805440
   36   10.288390    2.545716    0.000000   11.030546     1.273933   121.967000
   37   13.226960    0.849073    4.633448   10.935708     1.259598    17.131399
   38   10.288530    2.545653    6.967220   11.026488     1.274372   161.998560
   39   10.287317    4.243200    2.328655   10.976835     1.249521    17.355118
   40   11.757418    1.697624    2.329885   10.961869     1.258710    17.273443
   41   -2.939540    5.091432    0.000000   11.059677     1.274097   180.548624
   42    0.000037    6.788623    2.331509   10.970000     1.257535    17.332924
   43   -2.936946    8.485241    4.640385   10.973190     1.268959    17.337362
   44   -2.939253    5.091140    6.969630   11.047740     1.275700   144.616809
   45   -4.409310    7.637149    0.000000   11.053774     1.279084   192.682736
   46   -1.469829    9.334352    2.331509   10.941132     1.259041    17.169573
   47   -1.468976    5.942644    4.640385   10.974138     1.254026    17.343577
   48   -4.409259    7.637467    6.969680   11.062887     1.279727   145.305723
   49   -1.469770    7.637149    0.000000   11.037588     1.274587   156.528090
   50   -4.408347    9.333448    2.331410   10.993350     1.269110    17.450998
   51    1.468976    5.942618    4.640287   10.980514     1.265858    17.378200
   52   -1.469197    7.637454    6.975682   11.045945     1.279943   190.481941
   53    0.000000    5.091432    0.000000   11.050474     1.283709   193.546541
   54   -2.938688    6.789094    2.331263   10.966045     1.253388    17.300964
   55   -0.000022    8.485674    4.642648   10.917664     1.252601    17.041733
   56   -0.000147    5.090771    6.971402   11.049637     1.267790   186.830521
   57    2.939540    5.091432    0.000000   11.036010     1.268695   180.016847
   58    5.879220    6.787427    2.328655   10.939212     1.252408    17.142940
   59    2.936909    8.485356    4.640385   10.961431     1.265881    17.270779
   60    2.939128    5.091178    6.969680   11.034260     1.279453   144.914214
   61    1.469770    7.637149    0.000000   11.018229     1.284358   212.627494
   62    4.408384    9.333538    2.331410   10.990242     1.251399    17.433242
   63    4.408884    5.940200    4.637335   10.965184     1.254107    17.299188
   64    1.469344    7.637429    6.975584   11.006104     1.271964   222.482687
   65    4.409310    7.637149    0.000000   11.065126     1.268695   189.916428
   66    1.469880    9.334390    2.331509   10.929616     1.257518    17.112755
   67    7.348740    5.940034    4.636990   10.928180     1.264341    17.098551
   68    4.409141    7.637492    6.969581   11.063314     1.279315   144.644330
   69    5.879080    5.091432    0.000000   11.024342     1.276554   119.178498
   70    2.938695    6.789209    2.331312   10.963484     1.265219    17.282320
   71    5.877529    8.484299    4.636400   10.967051     1.252553    17.313393
   72    5.879183    5.091331    6.969532   11.009031     1.294567   231.166016
   73    8.818620    5.091432    0.000000   11.010850     1.277943   135.159340
   74    8.820141    8.484299    4.636400   10.983434     1.263205    17.398619
   75    8.818377    5.091394    6.969384   11.046668     1.280745   161.886701
   76    7.348850    7.637149    0.000000   11.041885     1.276717   146.057668
   77   10.288691    5.940238    4.637236   10.971248     1.266582    17.334699
   78    7.348813    7.637441    6.967170   11.049807     1.291596   163.727059
   79    7.348843    9.333423    2.329885   10.962443     1.255242    17.283208
   80    8.818319    6.787452    2.328655   10.972040     1.265810    17.325821
   81   -5.879080   10.182865    0.000000   11.052603     1.277207   164.056423
   82   -2.938261   11.879610    2.331410   10.968352     1.269140    17.315168
   83    8.818120   10.183705    6.965006   11.059598     1.288523   128.691897
   84   -4.407465   11.030372    4.636744   10.964378     1.262701    17.288535
   85   -1.467881   11.029405    4.640483   10.952339     1.268786    17.221064
   86   -2.939540   10.182865    0.000000   11.036375     1.280549   165.198102
   87   -5.877691   11.879266    2.329098   10.938485     1.256827    17.151817
   88   -2.940312   10.183208    6.971598   11.038150     1.287595   189.330496
   89    0.000000   10.182865    0.000000   11.002893     1.274587   211.697993
   90    2.938386   11.879699    2.331410   10.974722     1.257609    17.353342
   91   -0.000007   10.182317    6.975780   11.008598     1.279967   260.077304
   92    1.467867   11.029506    4.640385   10.959793     1.254060    17.268116
   93    4.407458   11.030436    4.636744   10.969628     1.258210    17.318719
   94    2.939540   10.182865    0.000000   11.050499     1.283709   193.622890
   95    0.000037   11.878935    2.331263   10.966323     1.253333    17.301851
   96    2.940113   10.183476    6.971549   11.050119     1.267906   187.642836
   97    5.879080   10.182865    0.000000   11.050008     1.265736   123.838430
   98    5.879536   10.183578    6.965104   11.040009     1.275303   162.736302
   99    7.348799   11.030346    4.633546   10.922939     1.250682    17.071030
  100    5.877875   11.879330    2.329049   10.959689     1.251434    17.275218
 --------------------------------------------------------------------------------
    VACUUM CHARGE:               0.0000
    VACUUM VOLUME:               0.0000
    NUMBER OF ELECTRONS:      1100.0000
