   3   3   1   0
  0.3068151E+04  0.1469770E-08  0.1469770E-08  0.4920040E-08  0.5000000E-15
  1.000000000000000E-004
  CAR 
 ice                                     
      1.38347655    -26.56825939  301     -5.97712450      1.00000000
    -26.568  0.0000E+00  0.0000E+00
    -26.475  0.0000E+00  0.0000E+00
    -26.382  0.0000E+00  0.0000E+00
    -26.289  0.0000E+00  0.0000E+00
    -26.196  0.0000E+00  0.0000E+00
    -26.102  0.0000E+00  0.0000E+00
    -26.009  0.0000E+00  0.0000E+00
    -25.916  0.0000E+00  0.0000E+00
    -25.823  0.0000E+00  0.0000E+00
    -25.730  0.3798E-02  0.3538E-03
    -25.637  0.2066E-01  0.2279E-02
    -25.543  0.1322E+00  0.1460E-01
    -25.450  0.8146E+00  0.9050E-01
    -25.357  0.4052E+01  0.4680E+00
    -25.264  0.9213E+01  0.1326E+01
    -25.171  0.5662E+01  0.1854E+01
    -25.078  0.1308E+01  0.1976E+01
    -24.984  0.2186E+00  0.1996E+01
    -24.891  0.0000E+00  0.2000E+01
    -24.798  0.0000E+00  0.2000E+01
    -24.705  0.0000E+00  0.2000E+01
    -24.612  0.0000E+00  0.2000E+01
    -24.518  0.0000E+00  0.2000E+01
    -24.425  0.0000E+00  0.2000E+01
    -24.332  0.0000E+00  0.2000E+01
    -24.239  0.0000E+00  0.2000E+01
    -24.146  0.0000E+00  0.2000E+01
    -24.053  0.0000E+00  0.2000E+01
    -23.959  0.0000E+00  0.2000E+01
    -23.866  0.0000E+00  0.2000E+01
    -23.773  0.0000E+00  0.2000E+01
    -23.680  0.0000E+00  0.2000E+01
    -23.587  0.0000E+00  0.2000E+01
    -23.494  0.0000E+00  0.2000E+01
    -23.400  0.0000E+00  0.2000E+01
    -23.307  0.0000E+00  0.2000E+01
    -23.214  0.0000E+00  0.2000E+01
    -23.121  0.0000E+00  0.2000E+01
    -23.028  0.0000E+00  0.2000E+01
    -22.935  0.0000E+00  0.2000E+01
    -22.841  0.0000E+00  0.2000E+01
    -22.748  0.0000E+00  0.2000E+01
    -22.655  0.0000E+00  0.2000E+01
    -22.562  0.0000E+00  0.2000E+01
    -22.469  0.0000E+00  0.2000E+01
    -22.375  0.0000E+00  0.2000E+01
    -22.282  0.0000E+00  0.2000E+01
    -22.189  0.0000E+00  0.2000E+01
    -22.096  0.0000E+00  0.2000E+01
    -22.003  0.0000E+00  0.2000E+01
    -21.910  0.0000E+00  0.2000E+01
    -21.816  0.0000E+00  0.2000E+01
    -21.723  0.0000E+00  0.2000E+01
    -21.630  0.0000E+00  0.2000E+01
    -21.537  0.0000E+00  0.2000E+01
    -21.444  0.0000E+00  0.2000E+01
    -21.351  0.0000E+00  0.2000E+01
    -21.257  0.0000E+00  0.2000E+01
    -21.164  0.0000E+00  0.2000E+01
    -21.071  0.0000E+00  0.2000E+01
    -20.978  0.0000E+00  0.2000E+01
    -20.885  0.0000E+00  0.2000E+01
    -20.792  0.0000E+00  0.2000E+01
    -20.698  0.0000E+00  0.2000E+01
    -20.605  0.0000E+00  0.2000E+01
    -20.512  0.0000E+00  0.2000E+01
    -20.419  0.0000E+00  0.2000E+01
    -20.326  0.0000E+00  0.2000E+01
    -20.233  0.0000E+00  0.2000E+01
    -20.139  0.0000E+00  0.2000E+01
    -20.046  0.0000E+00  0.2000E+01
    -19.953  0.0000E+00  0.2000E+01
    -19.860  0.0000E+00  0.2000E+01
    -19.767  0.0000E+00  0.2000E+01
    -19.673  0.0000E+00  0.2000E+01
    -19.580  0.0000E+00  0.2000E+01
    -19.487  0.0000E+00  0.2000E+01
    -19.394  0.0000E+00  0.2000E+01
    -19.301  0.0000E+00  0.2000E+01
    -19.208  0.0000E+00  0.2000E+01
    -19.114  0.0000E+00  0.2000E+01
    -19.021  0.0000E+00  0.2000E+01
    -18.928  0.0000E+00  0.2000E+01
    -18.835  0.0000E+00  0.2000E+01
    -18.742  0.0000E+00  0.2000E+01
    -18.649  0.0000E+00  0.2000E+01
    -18.555  0.0000E+00  0.2000E+01
    -18.462  0.0000E+00  0.2000E+01
    -18.369  0.0000E+00  0.2000E+01
    -18.276  0.0000E+00  0.2000E+01
    -18.183  0.0000E+00  0.2000E+01
    -18.090  0.0000E+00  0.2000E+01
    -17.996  0.0000E+00  0.2000E+01
    -17.903  0.0000E+00  0.2000E+01
    -17.810  0.0000E+00  0.2000E+01
    -17.717  0.0000E+00  0.2000E+01
    -17.624  0.0000E+00  0.2000E+01
    -17.531  0.0000E+00  0.2000E+01
    -17.437  0.0000E+00  0.2000E+01
    -17.344  0.0000E+00  0.2000E+01
    -17.251  0.0000E+00  0.2000E+01
    -17.158  0.0000E+00  0.2000E+01
    -17.065  0.0000E+00  0.2000E+01
    -16.971  0.0000E+00  0.2000E+01
    -16.878  0.0000E+00  0.2000E+01
    -16.785  0.0000E+00  0.2000E+01
    -16.692  0.0000E+00  0.2000E+01
    -16.599  0.0000E+00  0.2000E+01
    -16.506  0.0000E+00  0.2000E+01
    -16.412  0.0000E+00  0.2000E+01
    -16.319  0.0000E+00  0.2000E+01
    -16.226  0.0000E+00  0.2000E+01
    -16.133  0.0000E+00  0.2000E+01
    -16.040  0.0000E+00  0.2000E+01
    -15.947  0.0000E+00  0.2000E+01
    -15.853  0.0000E+00  0.2000E+01
    -15.760  0.0000E+00  0.2000E+01
    -15.667  0.0000E+00  0.2000E+01
    -15.574  0.0000E+00  0.2000E+01
    -15.481  0.0000E+00  0.2000E+01
    -15.388  0.0000E+00  0.2000E+01
    -15.294  0.0000E+00  0.2000E+01
    -15.201  0.0000E+00  0.2000E+01
    -15.108  0.0000E+00  0.2000E+01
    -15.015  0.0000E+00  0.2000E+01
    -14.922  0.0000E+00  0.2000E+01
    -14.829  0.0000E+00  0.2000E+01
    -14.735  0.0000E+00  0.2000E+01
    -14.642  0.0000E+00  0.2000E+01
    -14.549  0.0000E+00  0.2000E+01
    -14.456  0.0000E+00  0.2000E+01
    -14.363  0.0000E+00  0.2000E+01
    -14.269  0.0000E+00  0.2000E+01
    -14.176  0.0000E+00  0.2000E+01
    -14.083  0.0000E+00  0.2000E+01
    -13.990  0.0000E+00  0.2000E+01
    -13.897  0.0000E+00  0.2000E+01
    -13.804  0.0000E+00  0.2000E+01
    -13.710  0.0000E+00  0.2000E+01
    -13.617  0.0000E+00  0.2000E+01
    -13.524  0.4158E-02  0.2000E+01
    -13.431  0.2262E-01  0.2002E+01
    -13.338  0.1447E+00  0.2016E+01
    -13.245  0.8876E+00  0.2099E+01
    -13.151  0.4322E+01  0.2501E+01
    -13.058  0.9284E+01  0.3366E+01
    -12.965  0.5360E+01  0.3866E+01
    -12.872  0.1204E+01  0.3978E+01
    -12.779  0.1998E+00  0.3997E+01
    -12.686  0.0000E+00  0.4000E+01
    -12.592  0.0000E+00  0.4000E+01
    -12.499  0.0000E+00  0.4000E+01
    -12.406  0.0000E+00  0.4000E+01
    -12.313  0.0000E+00  0.4000E+01
    -12.220  0.0000E+00  0.4000E+01
    -12.127  0.0000E+00  0.4000E+01
    -12.033  0.0000E+00  0.4000E+01
    -11.940  0.0000E+00  0.4000E+01
    -11.847  0.0000E+00  0.4000E+01
    -11.754  0.0000E+00  0.4000E+01
    -11.661  0.0000E+00  0.4000E+01
    -11.567  0.0000E+00  0.4000E+01
    -11.474  0.0000E+00  0.4000E+01
    -11.381  0.0000E+00  0.4000E+01
    -11.288  0.0000E+00  0.4000E+01
    -11.195  0.0000E+00  0.4000E+01
    -11.102  0.0000E+00  0.4000E+01
    -11.008  0.0000E+00  0.4000E+01
    -10.915  0.0000E+00  0.4000E+01
    -10.822  0.0000E+00  0.4000E+01
    -10.729  0.0000E+00  0.4000E+01
    -10.636  0.0000E+00  0.4000E+01
    -10.543  0.0000E+00  0.4000E+01
    -10.449  0.0000E+00  0.4000E+01
    -10.356  0.0000E+00  0.4000E+01
    -10.263  0.0000E+00  0.4000E+01
    -10.170  0.0000E+00  0.4000E+01
    -10.077  0.0000E+00  0.4000E+01
     -9.984  0.0000E+00  0.4000E+01
     -9.890  0.0000E+00  0.4000E+01
     -9.797  0.0000E+00  0.4000E+01
     -9.704  0.3519E-02  0.4000E+01
     -9.611  0.1914E-01  0.4002E+01
     -9.518  0.1226E+00  0.4014E+01
     -9.425  0.7577E+00  0.4084E+01
     -9.331  0.3832E+01  0.4441E+01
     -9.238  0.9130E+01  0.5292E+01
     -9.145  0.5918E+01  0.5843E+01
     -9.052  0.1403E+01  0.5974E+01
     -8.959  0.2356E+00  0.5996E+01
     -8.865  0.0000E+00  0.6000E+01
     -8.772  0.0000E+00  0.6000E+01
     -8.679  0.0000E+00  0.6000E+01
     -8.586  0.0000E+00  0.6000E+01
     -8.493  0.0000E+00  0.6000E+01
     -8.400  0.0000E+00  0.6000E+01
     -8.306  0.0000E+00  0.6000E+01
     -8.213  0.0000E+00  0.6000E+01
     -8.120  0.0000E+00  0.6000E+01
     -8.027  0.0000E+00  0.6000E+01
     -7.934  0.0000E+00  0.6000E+01
     -7.841  0.0000E+00  0.6000E+01
     -7.747  0.0000E+00  0.6000E+01
     -7.654  0.2786E-02  0.6000E+01
     -7.561  0.1516E-01  0.6002E+01
     -7.468  0.9719E-01  0.6011E+01
     -7.375  0.6060E+00  0.6067E+01
     -7.282  0.3208E+01  0.6366E+01
     -7.188  0.8754E+01  0.7182E+01
     -7.095  0.6700E+01  0.7806E+01
     -7.002  0.1730E+01  0.7967E+01
     -6.909  0.2965E+00  0.7995E+01
     -6.816  0.4674E-01  0.7999E+01
     -6.723  0.0000E+00  0.8000E+01
     -6.629  0.0000E+00  0.8000E+01
     -6.536  0.0000E+00  0.8000E+01
     -6.443  0.0000E+00  0.8000E+01
     -6.350  0.0000E+00  0.8000E+01
     -6.257  0.0000E+00  0.8000E+01
     -6.163  0.0000E+00  0.8000E+01
     -6.070  0.0000E+00  0.8000E+01
     -5.977  0.0000E+00  0.8000E+01
     -5.884  0.0000E+00  0.8000E+01
     -5.791  0.0000E+00  0.8000E+01
     -5.698  0.0000E+00  0.8000E+01
     -5.604  0.0000E+00  0.8000E+01
     -5.511  0.0000E+00  0.8000E+01
     -5.418  0.0000E+00  0.8000E+01
     -5.325  0.0000E+00  0.8000E+01
     -5.232  0.0000E+00  0.8000E+01
     -5.139  0.0000E+00  0.8000E+01
     -5.045  0.0000E+00  0.8000E+01
     -4.952  0.0000E+00  0.8000E+01
     -4.859  0.0000E+00  0.8000E+01
     -4.766  0.0000E+00  0.8000E+01
     -4.673  0.0000E+00  0.8000E+01
     -4.580  0.0000E+00  0.8000E+01
     -4.486  0.0000E+00  0.8000E+01
     -4.393  0.0000E+00  0.8000E+01
     -4.300  0.0000E+00  0.8000E+01
     -4.207  0.0000E+00  0.8000E+01
     -4.114  0.0000E+00  0.8000E+01
     -4.021  0.0000E+00  0.8000E+01
     -3.927  0.0000E+00  0.8000E+01
     -3.834  0.0000E+00  0.8000E+01
     -3.741  0.0000E+00  0.8000E+01
     -3.648  0.0000E+00  0.8000E+01
     -3.555  0.0000E+00  0.8000E+01
     -3.461  0.0000E+00  0.8000E+01
     -3.368  0.0000E+00  0.8000E+01
     -3.275  0.0000E+00  0.8000E+01
     -3.182  0.0000E+00  0.8000E+01
     -3.089  0.0000E+00  0.8000E+01
     -2.996  0.0000E+00  0.8000E+01
     -2.902  0.0000E+00  0.8000E+01
     -2.809  0.0000E+00  0.8000E+01
     -2.716  0.0000E+00  0.8000E+01
     -2.623  0.0000E+00  0.8000E+01
     -2.530  0.0000E+00  0.8000E+01
     -2.437  0.0000E+00  0.8000E+01
     -2.343  0.0000E+00  0.8000E+01
     -2.250  0.0000E+00  0.8000E+01
     -2.157  0.0000E+00  0.8000E+01
     -2.064  0.0000E+00  0.8000E+01
     -1.971  0.0000E+00  0.8000E+01
     -1.878  0.0000E+00  0.8000E+01
     -1.784  0.0000E+00  0.8000E+01
     -1.691  0.0000E+00  0.8000E+01
     -1.598  0.0000E+00  0.8000E+01
     -1.505  0.0000E+00  0.8000E+01
     -1.412  0.6417E-02  0.8001E+01
     -1.319  0.3488E-01  0.8004E+01
     -1.225  0.2221E+00  0.8025E+01
     -1.132  0.1328E+01  0.8148E+01
     -1.039  0.5717E+01  0.8681E+01
     -0.946  0.9197E+01  0.9538E+01
     -0.853  0.4004E+01  0.9911E+01
     -0.759  0.8020E+00  0.9986E+01
     -0.666  0.1301E+00  0.9998E+01
     -0.573  0.1558E-02  0.1000E+02
     -0.480  0.8481E-02  0.1000E+02
     -0.387  0.5977E-01  0.1001E+02
     -0.294  0.3798E+00  0.1004E+02
     -0.200  0.2198E+01  0.1025E+02
     -0.107  0.8527E+01  0.1104E+02
     -0.014  0.1479E+02  0.1242E+02
      0.079  0.1782E+02  0.1408E+02
      0.172  0.1433E+02  0.1542E+02
      0.265  0.5101E+01  0.1589E+02
      0.359  0.9728E+00  0.1598E+02
      0.452  0.1322E+00  0.1600E+02
      0.545  0.0000E+00  0.1600E+02
      0.638  0.0000E+00  0.1600E+02
      0.731  0.0000E+00  0.1600E+02
      0.824  0.0000E+00  0.1600E+02
      0.918  0.0000E+00  0.1600E+02
      1.011  0.0000E+00  0.1600E+02
      1.104  0.0000E+00  0.1600E+02
      1.197  0.0000E+00  0.1600E+02
      1.290  0.0000E+00  0.1600E+02
      1.383  0.0000E+00  0.1600E+02
      1.38347655    -26.56825939  301     -5.97712450      1.00000000
    -26.568  0.0000E+00  0.0000E+00  0.0000E+00  0.0000E+00  0.0000E+00  0.0000E+00  0.0000E+00  0.0000E+00  0.0000E+00
    -26.475  0.0000E+00  0.0000E+00  0.0000E+00  0.0000E+00  0.0000E+00  0.0000E+00  0.0000E+00  0.0000E+00  0.0000E+00
    -26.382  0.0000E+00  0.0000E+00  0.0000E+00  0.0000E+00  0.0000E+00  0.0000E+00  0.0000E+00  0.0000E+00  0.0000E+00
    -26.289  0.0000E+00  0.0000E+00  0.0000E+00  0.0000E+00  0.0000E+00  0.0000E+00  0.0000E+00  0.0000E+00  0.0000E+00
    -26.196  0.0000E+00  0.0000E+00  0.0000E+00  0.0000E+00  0.0000E+00  0.0000E+00  0.0000E+00  0.0000E+00  0.0000E+00
    -26.102  0.0000E+00  0.0000E+00  0.0000E+00  0.0000E+00  0.0000E+00  0.0000E+00  0.0000E+00  0.0000E+00  0.0000E+00
    -26.009  0.0000E+00  0.0000E+00  0.0000E+00  0.0000E+00  0.0000E+00  0.0000E+00  0.0000E+00  0.0000E+00  0.0000E+00
    -25.916  0.0000E+00  0.0000E+00  0.0000E+00  0.0000E+00  0.0000E+00  0.0000E+00  0.0000E+00  0.0000E+00  0.0000E+00
    -25.823  0.0000E+00  0.0000E+00  0.0000E+00  0.0000E+00  0.0000E+00  0.0000E+00  0.0000E+00  0.0000E+00  0.0000E+00
    -25.730  0.3691E-03  0.5209E-04  0.7885E-05  0.1426E-04  0.0000E+00  0.0000E+00  0.0000E+00  0.0000E+00  0.0000E+00
    -25.637  0.2008E-02  0.2833E-03  0.4289E-04  0.7758E-04  0.0000E+00  0.0000E+00  0.0000E+00  0.0000E+00  0.0000E+00
    -25.543  0.1285E-01  0.1813E-02  0.2745E-03  0.4965E-03  0.0000E+00  0.0000E+00  0.0000E+00  0.0000E+00  0.0000E+00
    -25.450  0.7917E-01  0.1117E-01  0.1691E-02  0.3059E-02  0.0000E+00  0.0000E+00  0.0000E+00  0.0000E+00  0.0000E+00
    -25.357  0.3938E+00  0.5557E-01  0.8412E-02  0.1522E-01  0.0000E+00  0.0000E+00  0.0000E+00  0.0000E+00  0.0000E+00
    -25.264  0.8954E+00  0.1264E+00  0.1913E-01  0.3460E-01  0.0000E+00  0.0000E+00  0.0000E+00  0.0000E+00  0.0000E+00
    -25.171  0.5503E+00  0.7765E-01  0.1176E-01  0.2126E-01  0.0000E+00  0.0000E+00  0.0000E+00  0.0000E+00  0.0000E+00
    -25.078  0.1272E+00  0.1794E-01  0.2717E-02  0.4914E-02  0.0000E+00  0.0000E+00  0.0000E+00  0.0000E+00  0.0000E+00
    -24.984  0.2124E-01  0.2998E-02  0.4538E-03  0.8208E-03  0.0000E+00  0.0000E+00  0.0000E+00  0.0000E+00  0.0000E+00
    -24.891  0.0000E+00  0.0000E+00  0.0000E+00  0.0000E+00  0.0000E+00  0.0000E+00  0.0000E+00  0.0000E+00  0.0000E+00
    -24.798  0.0000E+00  0.0000E+00  0.0000E+00  0.0000E+00  0.0000E+00  0.0000E+00  0.0000E+00  0.0000E+00  0.0000E+00
    -24.705  0.0000E+00  0.0000E+00  0.0000E+00  0.0000E+00  0.0000E+00  0.0000E+00  0.0000E+00  0.0000E+00  0.0000E+00
    -24.612  0.0000E+00  0.0000E+00  0.0000E+00  0.0000E+00  0.0000E+00  0.0000E+00  0.0000E+00  0.0000E+00  0.0000E+00
    -24.518  0.0000E+00  0.0000E+00  0.0000E+00  0.0000E+00  0.0000E+00  0.0000E+00  0.0000E+00  0.0000E+00  0.0000E+00
    -24.425  0.0000E+00  0.0000E+00  0.0000E+00  0.0000E+00  0.0000E+00  0.0000E+00  0.0000E+00  0.0000E+00  0.0000E+00
    -24.332  0.0000E+00  0.0000E+00  0.0000E+00  0.0000E+00  0.0000E+00  0.0000E+00  0.0000E+00  0.0000E+00  0.0000E+00
    -24.239  0.0000E+00  0.0000E+00  0.0000E+00  0.0000E+00  0.0000E+00  0.0000E+00  0.0000E+00  0.0000E+00  0.0000E+00
    -24.146  0.0000E+00  0.0000E+00  0.0000E+00  0.0000E+00  0.0000E+00  0.0000E+00  0.0000E+00  0.0000E+00  0.0000E+00
    -24.053  0.0000E+00  0.0000E+00  0.0000E+00  0.0000E+00  0.0000E+00  0.0000E+00  0.0000E+00  0.0000E+00  0.0000E+00
    -23.959  0.0000E+00  0.0000E+00  0.0000E+00  0.0000E+00  0.0000E+00  0.0000E+00  0.0000E+00  0.0000E+00  0.0000E+00
    -23.866  0.0000E+00  0.0000E+00  0.0000E+00  0.0000E+00  0.0000E+00  0.0000E+00  0.0000E+00  0.0000E+00  0.0000E+00
    -23.773  0.0000E+00  0.0000E+00  0.0000E+00  0.0000E+00  0.0000E+00  0.0000E+00  0.0000E+00  0.0000E+00  0.0000E+00
    -23.680  0.0000E+00  0.0000E+00  0.0000E+00  0.0000E+00  0.0000E+00  0.0000E+00  0.0000E+00  0.0000E+00  0.0000E+00
    -23.587  0.0000E+00  0.0000E+00  0.0000E+00  0.0000E+00  0.0000E+00  0.0000E+00  0.0000E+00  0.0000E+00  0.0000E+00
    -23.494  0.0000E+00  0.0000E+00  0.0000E+00  0.0000E+00  0.0000E+00  0.0000E+00  0.0000E+00  0.0000E+00  0.0000E+00
    -23.400  0.0000E+00  0.0000E+00  0.0000E+00  0.0000E+00  0.0000E+00  0.0000E+00  0.0000E+00  0.0000E+00  0.0000E+00
    -23.307  0.0000E+00  0.0000E+00  0.0000E+00  0.0000E+00  0.0000E+00  0.0000E+00  0.0000E+00  0.0000E+00  0.0000E+00
    -23.214  0.0000E+00  0.0000E+00  0.0000E+00  0.0000E+00  0.0000E+00  0.0000E+00  0.0000E+00  0.0000E+00  0.0000E+00
    -23.121  0.0000E+00  0.0000E+00  0.0000E+00  0.0000E+00  0.0000E+00  0.0000E+00  0.0000E+00  0.0000E+00  0.0000E+00
    -23.028  0.0000E+00  0.0000E+00  0.0000E+00  0.0000E+00  0.0000E+00  0.0000E+00  0.0000E+00  0.0000E+00  0.0000E+00
    -22.935  0.0000E+00  0.0000E+00  0.0000E+00  0.0000E+00  0.0000E+00  0.0000E+00  0.0000E+00  0.0000E+00  0.0000E+00
    -22.841  0.0000E+00  0.0000E+00  0.0000E+00  0.0000E+00  0.0000E+00  0.0000E+00  0.0000E+00  0.0000E+00  0.0000E+00
    -22.748  0.0000E+00  0.0000E+00  0.0000E+00  0.0000E+00  0.0000E+00  0.0000E+00  0.0000E+00  0.0000E+00  0.0000E+00
    -22.655  0.0000E+00  0.0000E+00  0.0000E+00  0.0000E+00  0.0000E+00  0.0000E+00  0.0000E+00  0.0000E+00  0.0000E+00
    -22.562  0.0000E+00  0.0000E+00  0.0000E+00  0.0000E+00  0.0000E+00  0.0000E+00  0.0000E+00  0.0000E+00  0.0000E+00
    -22.469  0.0000E+00  0.0000E+00  0.0000E+00  0.0000E+00  0.0000E+00  0.0000E+00  0.0000E+00  0.0000E+00  0.0000E+00
    -22.375  0.0000E+00  0.0000E+00  0.0000E+00  0.0000E+00  0.0000E+00  0.0000E+00  0.0000E+00  0.0000E+00  0.0000E+00
    -22.282  0.0000E+00  0.0000E+00  0.0000E+00  0.0000E+00  0.0000E+00  0.0000E+00  0.0000E+00  0.0000E+00  0.0000E+00
    -22.189  0.0000E+00  0.0000E+00  0.0000E+00  0.0000E+00  0.0000E+00  0.0000E+00  0.0000E+00  0.0000E+00  0.0000E+00
    -22.096  0.0000E+00  0.0000E+00  0.0000E+00  0.0000E+00  0.0000E+00  0.0000E+00  0.0000E+00  0.0000E+00  0.0000E+00
    -22.003  0.0000E+00  0.0000E+00  0.0000E+00  0.0000E+00  0.0000E+00  0.0000E+00  0.0000E+00  0.0000E+00  0.0000E+00
    -21.910  0.0000E+00  0.0000E+00  0.0000E+00  0.0000E+00  0.0000E+00  0.0000E+00  0.0000E+00  0.0000E+00  0.0000E+00
    -21.816  0.0000E+00  0.0000E+00  0.0000E+00  0.0000E+00  0.0000E+00  0.0000E+00  0.0000E+00  0.0000E+00  0.0000E+00
    -21.723  0.0000E+00  0.0000E+00  0.0000E+00  0.0000E+00  0.0000E+00  0.0000E+00  0.0000E+00  0.0000E+00  0.0000E+00
    -21.630  0.0000E+00  0.0000E+00  0.0000E+00  0.0000E+00  0.0000E+00  0.0000E+00  0.0000E+00  0.0000E+00  0.0000E+00
    -21.537  0.0000E+00  0.0000E+00  0.0000E+00  0.0000E+00  0.0000E+00  0.0000E+00  0.0000E+00  0.0000E+00  0.0000E+00
    -21.444  0.0000E+00  0.0000E+00  0.0000E+00  0.0000E+00  0.0000E+00  0.0000E+00  0.0000E+00  0.0000E+00  0.0000E+00
    -21.351  0.0000E+00  0.0000E+00  0.0000E+00  0.0000E+00  0.0000E+00  0.0000E+00  0.0000E+00  0.0000E+00  0.0000E+00
    -21.257  0.0000E+00  0.0000E+00  0.0000E+00  0.0000E+00  0.0000E+00  0.0000E+00  0.0000E+00  0.0000E+00  0.0000E+00
    -21.164  0.0000E+00  0.0000E+00  0.0000E+00  0.0000E+00  0.0000E+00  0.0000E+00  0.0000E+00  0.0000E+00  0.0000E+00
    -21.071  0.0000E+00  0.0000E+00  0.0000E+00  0.0000E+00  0.0000E+00  0.0000E+00  0.0000E+00  0.0000E+00  0.0000E+00
    -20.978  0.0000E+00  0.0000E+00  0.0000E+00  0.0000E+00  0.0000E+00  0.0000E+00  0.0000E+00  0.0000E+00  0.0000E+00
    -20.885  0.0000E+00  0.0000E+00  0.0000E+00  0.0000E+00  0.0000E+00  0.0000E+00  0.0000E+00  0.0000E+00  0.0000E+00
    -20.792  0.0000E+00  0.0000E+00  0.0000E+00  0.0000E+00  0.0000E+00  0.0000E+00  0.0000E+00  0.0000E+00  0.0000E+00
    -20.698  0.0000E+00  0.0000E+00  0.0000E+00  0.0000E+00  0.0000E+00  0.0000E+00  0.0000E+00  0.0000E+00  0.0000E+00
    -20.605  0.0000E+00  0.0000E+00  0.0000E+00  0.0000E+00  0.0000E+00  0.0000E+00  0.0000E+00  0.0000E+00  0.0000E+00
    -20.512  0.0000E+00  0.0000E+00  0.0000E+00  0.0000E+00  0.0000E+00  0.0000E+00  0.0000E+00  0.0000E+00  0.0000E+00
    -20.419  0.0000E+00  0.0000E+00  0.0000E+00  0.0000E+00  0.0000E+00  0.0000E+00  0.0000E+00  0.0000E+00  0.0000E+00
    -20.326  0.0000E+00  0.0000E+00  0.0000E+00  0.0000E+00  0.0000E+00  0.0000E+00  0.0000E+00  0.0000E+00  0.0000E+00
    -20.233  0.0000E+00  0.0000E+00  0.0000E+00  0.0000E+00  0.0000E+00  0.0000E+00  0.0000E+00  0.0000E+00  0.0000E+00
    -20.139  0.0000E+00  0.0000E+00  0.0000E+00  0.0000E+00  0.0000E+00  0.0000E+00  0.0000E+00  0.0000E+00  0.0000E+00
    -20.046  0.0000E+00  0.0000E+00  0.0000E+00  0.0000E+00  0.0000E+00  0.0000E+00  0.0000E+00  0.0000E+00  0.0000E+00
    -19.953  0.0000E+00  0.0000E+00  0.0000E+00  0.0000E+00  0.0000E+00  0.0000E+00  0.0000E+00  0.0000E+00  0.0000E+00
    -19.860  0.0000E+00  0.0000E+00  0.0000E+00  0.0000E+00  0.0000E+00  0.0000E+00  0.0000E+00  0.0000E+00  0.0000E+00
    -19.767  0.0000E+00  0.0000E+00  0.0000E+00  0.0000E+00  0.0000E+00  0.0000E+00  0.0000E+00  0.0000E+00  0.0000E+00
    -19.673  0.0000E+00  0.0000E+00  0.0000E+00  0.0000E+00  0.0000E+00  0.0000E+00  0.0000E+00  0.0000E+00  0.0000E+00
    -19.580  0.0000E+00  0.0000E+00  0.0000E+00  0.0000E+00  0.0000E+00  0.0000E+00  0.0000E+00  0.0000E+00  0.0000E+00
    -19.487  0.0000E+00  0.0000E+00  0.0000E+00  0.0000E+00  0.0000E+00  0.0000E+00  0.0000E+00  0.0000E+00  0.0000E+00
    -19.394  0.0000E+00  0.0000E+00  0.0000E+00  0.0000E+00  0.0000E+00  0.0000E+00  0.0000E+00  0.0000E+00  0.0000E+00
    -19.301  0.0000E+00  0.0000E+00  0.0000E+00  0.0000E+00  0.0000E+00  0.0000E+00  0.0000E+00  0.0000E+00  0.0000E+00
    -19.208  0.0000E+00  0.0000E+00  0.0000E+00  0.0000E+00  0.0000E+00  0.0000E+00  0.0000E+00  0.0000E+00  0.0000E+00
    -19.114  0.0000E+00  0.0000E+00  0.0000E+00  0.0000E+00  0.0000E+00  0.0000E+00  0.0000E+00  0.0000E+00  0.0000E+00
    -19.021  0.0000E+00  0.0000E+00  0.0000E+00  0.0000E+00  0.0000E+00  0.0000E+00  0.0000E+00  0.0000E+00  0.0000E+00
    -18.928  0.0000E+00  0.0000E+00  0.0000E+00  0.0000E+00  0.0000E+00  0.0000E+00  0.0000E+00  0.0000E+00  0.0000E+00
    -18.835  0.0000E+00  0.0000E+00  0.0000E+00  0.0000E+00  0.0000E+00  0.0000E+00  0.0000E+00  0.0000E+00  0.0000E+00
    -18.742  0.0000E+00  0.0000E+00  0.0000E+00  0.0000E+00  0.0000E+00  0.0000E+00  0.0000E+00  0.0000E+00  0.0000E+00
    -18.649  0.0000E+00  0.0000E+00  0.0000E+00  0.0000E+00  0.0000E+00  0.0000E+00  0.0000E+00  0.0000E+00  0.0000E+00
    -18.555  0.0000E+00  0.0000E+00  0.0000E+00  0.0000E+00  0.0000E+00  0.0000E+00  0.0000E+00  0.0000E+00  0.0000E+00
    -18.462  0.0000E+00  0.0000E+00  0.0000E+00  0.0000E+00  0.0000E+00  0.0000E+00  0.0000E+00  0.0000E+00  0.0000E+00
    -18.369  0.0000E+00  0.0000E+00  0.0000E+00  0.0000E+00  0.0000E+00  0.0000E+00  0.0000E+00  0.0000E+00  0.0000E+00
    -18.276  0.0000E+00  0.0000E+00  0.0000E+00  0.0000E+00  0.0000E+00  0.0000E+00  0.0000E+00  0.0000E+00  0.0000E+00
    -18.183  0.0000E+00  0.0000E+00  0.0000E+00  0.0000E+00  0.0000E+00  0.0000E+00  0.0000E+00  0.0000E+00  0.0000E+00
    -18.090  0.0000E+00  0.0000E+00  0.0000E+00  0.0000E+00  0.0000E+00  0.0000E+00  0.0000E+00  0.0000E+00  0.0000E+00
    -17.996  0.0000E+00  0.0000E+00  0.0000E+00  0.0000E+00  0.0000E+00  0.0000E+00  0.0000E+00  0.0000E+00  0.0000E+00
    -17.903  0.0000E+00  0.0000E+00  0.0000E+00  0.0000E+00  0.0000E+00  0.0000E+00  0.0000E+00  0.0000E+00  0.0000E+00
    -17.810  0.0000E+00  0.0000E+00  0.0000E+00  0.0000E+00  0.0000E+00  0.0000E+00  0.0000E+00  0.0000E+00  0.0000E+00
    -17.717  0.0000E+00  0.0000E+00  0.0000E+00  0.0000E+00  0.0000E+00  0.0000E+00  0.0000E+00  0.0000E+00  0.0000E+00
    -17.624  0.0000E+00  0.0000E+00  0.0000E+00  0.0000E+00  0.0000E+00  0.0000E+00  0.0000E+00  0.0000E+00  0.0000E+00
    -17.531  0.0000E+00  0.0000E+00  0.0000E+00  0.0000E+00  0.0000E+00  0.0000E+00  0.0000E+00  0.0000E+00  0.0000E+00
    -17.437  0.0000E+00  0.0000E+00  0.0000E+00  0.0000E+00  0.0000E+00  0.0000E+00  0.0000E+00  0.0000E+00  0.0000E+00
    -17.344  0.0000E+00  0.0000E+00  0.0000E+00  0.0000E+00  0.0000E+00  0.0000E+00  0.0000E+00  0.0000E+00  0.0000E+00
    -17.251  0.0000E+00  0.0000E+00  0.0000E+00  0.0000E+00  0.0000E+00  0.0000E+00  0.0000E+00  0.0000E+00  0.0000E+00
    -17.158  0.0000E+00  0.0000E+00  0.0000E+00  0.0000E+00  0.0000E+00  0.0000E+00  0.0000E+00  0.0000E+00  0.0000E+00
    -17.065  0.0000E+00  0.0000E+00  0.0000E+00  0.0000E+00  0.0000E+00  0.0000E+00  0.0000E+00  0.0000E+00  0.0000E+00
    -16.971  0.0000E+00  0.0000E+00  0.0000E+00  0.0000E+00  0.0000E+00  0.0000E+00  0.0000E+00  0.0000E+00  0.0000E+00
    -16.878  0.0000E+00  0.0000E+00  0.0000E+00  0.0000E+00  0.0000E+00  0.0000E+00  0.0000E+00  0.0000E+00  0.0000E+00
    -16.785  0.0000E+00  0.0000E+00  0.0000E+00  0.0000E+00  0.0000E+00  0.0000E+00  0.0000E+00  0.0000E+00  0.0000E+00
    -16.692  0.0000E+00  0.0000E+00  0.0000E+00  0.0000E+00  0.0000E+00  0.0000E+00  0.0000E+00  0.0000E+00  0.0000E+00
    -16.599  0.0000E+00  0.0000E+00  0.0000E+00  0.0000E+00  0.0000E+00  0.0000E+00  0.0000E+00  0.0000E+00  0.0000E+00
    -16.506  0.0000E+00  0.0000E+00  0.0000E+00  0.0000E+00  0.0000E+00  0.0000E+00  0.0000E+00  0.0000E+00  0.0000E+00
    -16.412  0.0000E+00  0.0000E+00  0.0000E+00  0.0000E+00  0.0000E+00  0.0000E+00  0.0000E+00  0.0000E+00  0.0000E+00
    -16.319  0.0000E+00  0.0000E+00  0.0000E+00  0.0000E+00  0.0000E+00  0.0000E+00  0.0000E+00  0.0000E+00  0.0000E+00
    -16.226  0.0000E+00  0.0000E+00  0.0000E+00  0.0000E+00  0.0000E+00  0.0000E+00  0.0000E+00  0.0000E+00  0.0000E+00
    -16.133  0.0000E+00  0.0000E+00  0.0000E+00  0.0000E+00  0.0000E+00  0.0000E+00  0.0000E+00  0.0000E+00  0.0000E+00
    -16.040  0.0000E+00  0.0000E+00  0.0000E+00  0.0000E+00  0.0000E+00  0.0000E+00  0.0000E+00  0.0000E+00  0.0000E+00
    -15.947  0.0000E+00  0.0000E+00  0.0000E+00  0.0000E+00  0.0000E+00  0.0000E+00  0.0000E+00  0.0000E+00  0.0000E+00
    -15.853  0.0000E+00  0.0000E+00  0.0000E+00  0.0000E+00  0.0000E+00  0.0000E+00  0.0000E+00  0.0000E+00  0.0000E+00
    -15.760  0.0000E+00  0.0000E+00  0.0000E+00  0.0000E+00  0.0000E+00  0.0000E+00  0.0000E+00  0.0000E+00  0.0000E+00
    -15.667  0.0000E+00  0.0000E+00  0.0000E+00  0.0000E+00  0.0000E+00  0.0000E+00  0.0000E+00  0.0000E+00  0.0000E+00
    -15.574  0.0000E+00  0.0000E+00  0.0000E+00  0.0000E+00  0.0000E+00  0.0000E+00  0.0000E+00  0.0000E+00  0.0000E+00
    -15.481  0.0000E+00  0.0000E+00  0.0000E+00  0.0000E+00  0.0000E+00  0.0000E+00  0.0000E+00  0.0000E+00  0.0000E+00
    -15.388  0.0000E+00  0.0000E+00  0.0000E+00  0.0000E+00  0.0000E+00  0.0000E+00  0.0000E+00  0.0000E+00  0.0000E+00
    -15.294  0.0000E+00  0.0000E+00  0.0000E+00  0.0000E+00  0.0000E+00  0.0000E+00  0.0000E+00  0.0000E+00  0.0000E+00
    -15.201  0.0000E+00  0.0000E+00  0.0000E+00  0.0000E+00  0.0000E+00  0.0000E+00  0.0000E+00  0.0000E+00  0.0000E+00
    -15.108  0.0000E+00  0.0000E+00  0.0000E+00  0.0000E+00  0.0000E+00  0.0000E+00  0.0000E+00  0.0000E+00  0.0000E+00
    -15.015  0.0000E+00  0.0000E+00  0.0000E+00  0.0000E+00  0.0000E+00  0.0000E+00  0.0000E+00  0.0000E+00  0.0000E+00
    -14.922  0.0000E+00  0.0000E+00  0.0000E+00  0.0000E+00  0.0000E+00  0.0000E+00  0.0000E+00  0.0000E+00  0.0000E+00
    -14.829  0.0000E+00  0.0000E+00  0.0000E+00  0.0000E+00  0.0000E+00  0.0000E+00  0.0000E+00  0.0000E+00  0.0000E+00
    -14.735  0.0000E+00  0.0000E+00  0.0000E+00  0.0000E+00  0.0000E+00  0.0000E+00  0.0000E+00  0.0000E+00  0.0000E+00
    -14.642  0.0000E+00  0.0000E+00  0.0000E+00  0.0000E+00  0.0000E+00  0.0000E+00  0.0000E+00  0.0000E+00  0.0000E+00
    -14.549  0.0000E+00  0.0000E+00  0.0000E+00  0.0000E+00  0.0000E+00  0.0000E+00  0.0000E+00  0.0000E+00  0.0000E+00
    -14.456  0.0000E+00  0.0000E+00  0.0000E+00  0.0000E+00  0.0000E+00  0.0000E+00  0.0000E+00  0.0000E+00  0.0000E+00
    -14.363  0.0000E+00  0.0000E+00  0.0000E+00  0.0000E+00  0.0000E+00  0.0000E+00  0.0000E+00  0.0000E+00  0.0000E+00
    -14.269  0.0000E+00  0.0000E+00  0.0000E+00  0.0000E+00  0.0000E+00  0.0000E+00  0.0000E+00  0.0000E+00  0.0000E+00
    -14.176  0.0000E+00  0.0000E+00  0.0000E+00  0.0000E+00  0.0000E+00  0.0000E+00  0.0000E+00  0.0000E+00  0.0000E+00
    -14.083  0.0000E+00  0.0000E+00  0.0000E+00  0.0000E+00  0.0000E+00  0.0000E+00  0.0000E+00  0.0000E+00  0.0000E+00
    -13.990  0.0000E+00  0.0000E+00  0.0000E+00  0.0000E+00  0.0000E+00  0.0000E+00  0.0000E+00  0.0000E+00  0.0000E+00
    -13.897  0.0000E+00  0.0000E+00  0.0000E+00  0.0000E+00  0.0000E+00  0.0000E+00  0.0000E+00  0.0000E+00  0.0000E+00
    -13.804  0.0000E+00  0.0000E+00  0.0000E+00  0.0000E+00  0.0000E+00  0.0000E+00  0.0000E+00  0.0000E+00  0.0000E+00
    -13.710  0.0000E+00  0.0000E+00  0.0000E+00  0.0000E+00  0.0000E+00  0.0000E+00  0.0000E+00  0.0000E+00  0.0000E+00
    -13.617  0.0000E+00  0.0000E+00  0.0000E+00  0.0000E+00  0.0000E+00  0.0000E+00  0.0000E+00  0.0000E+00  0.0000E+00
    -13.524  0.6927E-03  0.2467E-04  0.1830E-04  0.3306E-04  0.0000E+00  0.0000E+00  0.0000E+00  0.0000E+00  0.0000E+00
    -13.431  0.3767E-02  0.1342E-03  0.9955E-04  0.1798E-03  0.0000E+00  0.0000E+00  0.0000E+00  0.0000E+00  0.0000E+00
    -13.338  0.2410E-01  0.8582E-03  0.6367E-03  0.1150E-02  0.0000E+00  0.0000E+00  0.0000E+00  0.0000E+00  0.0000E+00
    -13.245  0.1478E+00  0.5265E-02  0.3906E-02  0.7057E-02  0.0000E+00  0.0000E+00  0.0000E+00  0.0000E+00  0.0000E+00
    -13.151  0.7198E+00  0.2564E-01  0.1902E-01  0.3436E-01  0.0000E+00  0.0000E+00  0.0000E+00  0.0000E+00  0.0000E+00
    -13.058  0.1546E+01  0.5508E-01  0.4086E-01  0.7382E-01  0.0000E+00  0.0000E+00  0.0000E+00  0.0000E+00  0.0000E+00
    -12.965  0.8929E+00  0.3180E-01  0.2359E-01  0.4262E-01  0.0000E+00  0.0000E+00  0.0000E+00  0.0000E+00  0.0000E+00
    -12.872  0.2005E+00  0.7141E-02  0.5298E-02  0.9571E-02  0.0000E+00  0.0000E+00  0.0000E+00  0.0000E+00  0.0000E+00
    -12.779  0.3329E-01  0.1186E-02  0.8796E-03  0.1589E-02  0.0000E+00  0.0000E+00  0.0000E+00  0.0000E+00  0.0000E+00
    -12.686  0.0000E+00  0.0000E+00  0.0000E+00  0.0000E+00  0.0000E+00  0.0000E+00  0.0000E+00  0.0000E+00  0.0000E+00
    -12.592  0.0000E+00  0.0000E+00  0.0000E+00  0.0000E+00  0.0000E+00  0.0000E+00  0.0000E+00  0.0000E+00  0.0000E+00
    -12.499  0.0000E+00  0.0000E+00  0.0000E+00  0.0000E+00  0.0000E+00  0.0000E+00  0.0000E+00  0.0000E+00  0.0000E+00
    -12.406  0.0000E+00  0.0000E+00  0.0000E+00  0.0000E+00  0.0000E+00  0.0000E+00  0.0000E+00  0.0000E+00  0.0000E+00
    -12.313  0.0000E+00  0.0000E+00  0.0000E+00  0.0000E+00  0.0000E+00  0.0000E+00  0.0000E+00  0.0000E+00  0.0000E+00
    -12.220  0.0000E+00  0.0000E+00  0.0000E+00  0.0000E+00  0.0000E+00  0.0000E+00  0.0000E+00  0.0000E+00  0.0000E+00
    -12.127  0.0000E+00  0.0000E+00  0.0000E+00  0.0000E+00  0.0000E+00  0.0000E+00  0.0000E+00  0.0000E+00  0.0000E+00
    -12.033  0.0000E+00  0.0000E+00  0.0000E+00  0.0000E+00  0.0000E+00  0.0000E+00  0.0000E+00  0.0000E+00  0.0000E+00