    #         X           Y           Z       CHARGE      MIN DIST   ATOMIC VOL
 --------------------------------------------------------------------------------
    1    0.000000    0.000000    0.000000   10.997466     1.266394    66.409138
    2    2.952636    1.711383    2.314092   10.956889     1.247119    17.247697
    3   -0.024464    3.394089    4.626461   10.972553     1.233609    17.258350
    4    7.347586   12.726774    6.906555   11.030280     1.268218    23.230414
    5   13.227930    2.545716    0.000000   11.009564     1.283384    96.767500
    6    1.448723    4.254630    2.340414   10.967763     1.256520    17.343577
    7    1.478184    0.839641    4.608257   10.961483     1.252217    17.202421
    8   13.220853    2.538550    6.996199   10.918824     1.269716    20.322951
    9    1.469770    2.545716    0.000000   11.054397     1.265736    82.600383
   10   -1.482954    4.246942    2.311238   10.963460     1.252847    17.264565
   11    4.395678    0.840125    4.644862   10.981043     1.246568    17.340026
   12    1.450906    2.523912    6.896715   11.024064     1.254527    21.737176
   13    2.939540    0.000000    0.000000   11.013056     1.267137    96.178017
   14    0.014646    1.697114    2.316552   10.949325     1.251861    17.198870
   15    2.939261    3.398047    4.620754   10.956270     1.237474    17.213074
   16    2.937894    0.005753    6.996641   10.918022     1.269231    20.342482
   17    5.879080    0.000000    0.000000   11.054149     1.279084    94.235565
   18    8.811999    1.707857    2.320193   10.981987     1.262278    17.360445
   19    5.878705    3.414938    4.648060   10.955465     1.260210    17.237044
   20   -1.478383   12.723617    6.936027   11.038184     1.258595    22.390579
   21    4.409310    2.545716    0.000000   11.053098     1.303040    98.115143
   22    7.348784    4.242627    2.319897   10.940537     1.258239    17.129623
   23    7.378275    0.831253    4.669167   10.959877     1.255530    17.261014
   24    4.394847    2.546098    6.935731   11.008936     1.265285    22.988940
   25    7.348850    2.545716    0.000000   11.029922     1.264741   113.534911
   26    4.421355    4.243136    2.319651   10.977079     1.251719    17.338250
   27   10.282048    0.844427    4.620951   10.959191     1.251857    17.224615
   28    7.321468    2.536755    6.981389   10.950593     1.276880    21.511682
   29    8.818620    0.000000    0.000000   11.060738     1.291243    96.556209
   30    5.885922    1.689910    2.365998   10.961241     1.256416    17.332924
   31    8.793531    3.379184    4.651603   10.960583     1.242694    17.258350
   32    1.485166   12.725208    7.015387   10.937781     1.260646    21.220491
   33   11.758160    0.000000    0.000000   11.057544     1.254991    91.925574
   34   11.766295    3.383168    4.645797   10.978361     1.268977    17.325821
   35    4.434061   12.720842    6.897207   11.031178     1.276961    21.772687
   36   10.288390    2.545716    0.000000   11.041837     1.273933    99.147625
   37   13.226284    0.858696    4.607716   10.944478     1.240537    17.097663
   38   10.289478    2.529398    6.936814   11.006088     1.256993    23.013797
   39   10.287765    4.250239    2.367720   10.955808     1.253429    17.303627
   40   11.738054    1.700462    2.313698   10.953731     1.250752    17.221952
   41   -2.939540    5.091432    0.000000   11.055528     1.274097   100.148148
   42    0.020503    6.800143    2.338790   10.969923     1.261213    17.350679
   43   -2.932147    8.467969    4.671578   10.964688     1.260500    17.284096
   44   11.759497    5.082064    6.936469   11.042095     1.254216    22.387916
   45   -4.409310    7.637149    0.000000   11.056302     1.265070    91.518085
   46   -1.470409    9.308984    2.337609   10.973226     1.270131    17.359557
   47   -1.475024    5.935732    4.607962   10.955271     1.251300    17.187328
   48   10.279858    7.647981    7.015731   10.935755     1.261129    21.218716
   49   -1.469770    7.637149    0.000000   11.031319     1.292533    95.345284
   50   -4.388799    9.343835    2.340857   10.960741     1.259737    17.301851
   51    1.476634    5.952546    4.671381   10.972169     1.264697    17.324046
   52   -1.462583    7.601203    6.978093   10.953556     1.270421    21.538315
   53    0.000000    5.091432    0.000000   11.050009     1.283709    87.363297
   54   -2.957655    6.791245    2.323883   10.959847     1.263207    17.260126
   55   -0.000830    8.484808    4.679499   10.938881     1.247674    17.150042
   56   -0.001418    5.069196    6.932583   11.006283     1.273180    23.001368
   57    2.939540    5.091432    0.000000   11.059985     1.265407    93.410822
   58    5.870078    6.784601    2.367671   10.965127     1.253640    17.352455
   59    2.942244    8.480824    4.607765   10.958134     1.244565    17.209523
   60    2.928399    5.074223    7.015338   10.944088     1.271785    21.280860
   61    1.469770    7.637149    0.000000   11.015540     1.284358   100.466859
   62    4.411500    9.321089    2.312173   10.964406     1.256342    17.267228
   63    4.380877    5.917810    4.669856   10.970074     1.257553    17.312505
   64    1.490810    7.656254    6.977798   10.965877     1.266388    21.693675
   65    4.409310    7.637149    0.000000   11.039543     1.293572    84.074978
   66    1.448987    9.346037    2.338151   10.964578     1.251175    17.313393
   67    7.369677    5.924162    4.650077   10.951398     1.253666    17.213074
   68    4.414131    7.640738    6.936420   11.036909     1.288262    22.337313
   69    5.879080    5.091432    0.000000   11.007764     1.264833   106.959160
   70    2.944184    6.771860    2.323981   10.956983     1.266679    17.243258
   71    5.883078    8.496939    4.645846   10.972145     1.248612    17.293861
   72    5.885260    5.108731    6.977404   10.966559     1.274365    21.676808
   73    8.818620    5.091432    0.000000   11.014714     1.291160   102.187368
   74    8.822434    8.481601    4.621295   10.966186     1.264870    17.269004
   75    8.833296    5.069170    6.981980   10.967436     1.283225    21.667042
   76    7.348850    7.637149    0.000000   11.051589     1.276717    97.576263
   77   10.282533    5.971066    4.670151   10.969877     1.236869    17.310729
   78    7.358198    7.641018    6.937355   11.001785     1.277078    22.980950
   79    7.354413    9.314865    2.313600   10.947272     1.253155    17.183777
   80    8.811631    6.776658    2.321275   10.984027     1.259758    17.371986
   81   -5.879080   10.182865    0.000000   11.062026     1.277207    84.604979
   82   -2.929391   11.885682    2.311730   10.957692     1.250278    17.228166
   83   -5.887965   10.206247    6.896519   11.032153     1.249361    21.763810
   84   -4.395479   11.048001    4.628233   10.958439     1.238853    17.178451
   85   -1.468778   11.031568    4.607913   10.968994     1.255981    17.258350
   86   -2.939540   10.182865    0.000000   11.036354     1.280549    86.902542
   87   -5.883607   11.864972    2.315912   10.958395     1.267527    17.243258
   88   -2.956148   10.186963    6.935092   11.001775     1.272144    22.996930
   89    0.000000   10.182865    0.000000   11.011936     1.274587   113.108779
   90    2.939231   11.854891    2.341299   10.957959     1.263328    17.286759
   91   -0.029836   10.188440    6.980061   10.963134     1.291652    21.640409
   92    1.454712   11.029405    4.672316   10.969665     1.236809    17.311617
   93    4.418900   11.008071    4.629561   10.970962     1.252037    17.255687
   94    2.939540   10.182865    0.000000   11.052402     1.254492    86.313947
   95    0.012486   11.892250    2.324129   10.965918     1.255373    17.295637
   96    2.953716   10.186823    6.935879   11.001140     1.248182    22.988940
   97    5.879080   10.182865    0.000000   11.026910     1.265736    87.199946
   98    5.886693   10.177392    6.996740   10.912878     1.269111    20.310522
   99    7.338422   11.025382    4.606142   10.945935     1.236378    17.111868
  100    5.869174   11.891931    2.316207   10.959054     1.246946    17.245922
  101    1.988180    0.804255   24.693976    0.300169     0.010098     1.834144
  102    1.993126    0.805465   17.213006    0.295807     0.012545     1.713406
  103    2.051461    0.814706    9.755997    0.322805     0.047401     1.689436
  104    3.374041    4.243518   24.775403    0.313668     0.022378     1.823490
  105    3.379369    4.244702   17.335614    0.306885     0.020472     1.870542
  106    3.419920    4.290652    9.904680    0.316421     0.052834     1.635282
  107    0.296607    2.125075   20.943577    0.295640     0.018836     1.800408
  108    0.293631    2.118570   13.445486    0.311847     0.037697     1.829705
  109   -1.996095    5.059509   21.056689    0.318265     0.098580     2.107578
  110   -2.005758    5.069348   13.572029    0.328589     0.092274     2.116456
  111    1.692058    1.319674   20.943676    0.293786     0.018659     1.718733
  112    1.687443    1.314608   13.445633    0.305077     0.037188     1.650374
  113    5.379454    0.801761   21.057230    0.316925     0.099296     2.104027
  114    5.394203    0.797547   13.571783    0.328764     0.092009     2.115568
  115   -0.297011    2.124018   24.693091    0.302665     0.011024     1.835919
  116   -0.300384    2.128868   17.212121    0.295462     0.012389     1.724059
  117   -0.323533    2.182812    9.752503    0.317463     0.044527     1.716957
  118    1.988408    5.043267   24.775551    0.311153     0.022080     2.189254
  119    1.985461    5.049695   17.335909    0.305378     0.021280     1.693875
  120    2.008125    5.106159    9.902073    0.312175     0.053431     1.692100
  121    2.489364    0.003233   22.560696    0.330892     0.048110     2.222989
  122    2.510933    0.001031   15.087352    0.335955     0.051842     2.276256
  123    3.439806    0.000738   21.242716    0.324897     0.072562     1.599771
  124    3.448529    0.000395   13.758892    0.320855     0.082132     1.633506
  125    2.409864    4.173676   22.626723    0.278044     0.022936     1.902502
  126    2.385981    4.136101   15.213158    0.327532     0.063471     2.249622
  127    1.955132    3.386464   21.264118    0.361831     0.113300     2.044546
  128    1.939927    3.362522   13.829347    0.329731     0.108490     1.890073
  129   -1.242036    2.157329   22.560007    0.327554     0.047678     2.225652
  130   13.442002    2.172794   15.086565    0.334757     0.052469     2.276256
  131   -1.719638    2.979112   21.242126    0.320057     0.072658     1.594444
  132   12.972866    2.985005   13.758695    0.313216     0.028705     1.601547
  133   -2.687489   12.721377   26.409545    0.432293     0.051420   148.468866
  134    4.819141    0.000789   18.920851    0.327183     0.035521     2.137763
  135    4.987598    0.002126   11.411393    0.279929     0.014208     2.004596
  136    3.858492    0.000013   25.013435    0.326819     0.028073     1.841246
  137    3.910470    0.001833   17.552292    0.332284     0.048856     1.848348
  138    4.067824    0.003717   10.084655    0.307160     0.050172     1.704528
  139    1.270550    2.200759   26.327331    0.426286     0.055322   127.358459
  140    1.237392    2.144830   18.842966    0.345125     0.055224     2.303777
  141    1.266780    2.196266   11.308958    0.343839     0.017799     2.380125
  142    1.732771    3.000610   25.004283    0.303531     0.088081     1.558933
  143    1.712076    2.967185   17.527003    0.347241     0.104057     1.832368
  144    1.736776    3.008387    9.985418    0.333200     0.115475     1.682334
  145   12.360450    4.032427   26.408856    0.430043     0.051382   149.451633
  146   -2.409034    4.174376   18.920211    0.324857     0.035335     2.145753
  147   -2.490584    4.319724   11.411787    0.281726     0.015543     2.031230
  148   12.768634    3.341011   25.012746    0.320718     0.028005     1.831480
  149   -1.954199    3.387852   17.551653    0.336001     0.078483     1.866991
  150   -2.032185    3.523844   10.084262    0.306971     0.049697     1.692987
  151    9.341167    0.803683   24.772648    0.311053     0.025759     1.890961
  152    9.333877    0.805490   17.335761    0.307542     0.020580     1.700977
  153    9.272955    0.812007    9.905910    0.054773     0.051167     0.245026
  154   10.725331    4.224909   24.856781    0.315303     0.043384     1.858114
  155   10.727800    4.249475   17.351063    0.308053     0.034878     1.760458
  156   10.617957    4.360710    9.832700    0.315318     0.059470     1.612200
  157    5.644586    1.326840   24.861750    0.328944     0.067818     1.944228
  158    5.664354    1.316123   17.351259    0.343709     0.107992     1.867879
  159    5.822244    1.357172    9.828912    0.341034     0.104360     1.715182
  160    7.644546    2.127417   21.107021    0.309860     0.050617     1.700977
  161    7.665600    2.114981   13.672053    0.298876     0.013597     1.625516
  162    5.371238    5.041956   21.109334    0.336397     0.112175     1.858114
  163    5.349889    5.029470   13.671955    0.294292     0.090247     1.785316
  164    3.977278    4.232648   21.070318    0.302656     0.016520     1.661027
  165    3.957664    4.207738   13.661771    0.263700     0.044889     1.473707
  166    9.043230    1.325529   21.066972    0.299964     0.013792     1.599771
  167    9.074389    1.320107   13.666887    0.306143     0.043208     1.753356
  168   12.713929    0.806776   20.946726    0.307535     0.086737     1.946891
  169   12.712930    0.805248   13.443862    0.342273     0.114223     1.973524
  170    7.042469    2.118914   24.879757    0.305497     0.015848     1.836807
  171    7.064883    2.120314   17.372711    0.322214     0.049518     1.992168
  172    7.192569    2.183232   10.013462    0.313035     0.035576     1.740927
  173    9.342314    5.042326   24.878183    0.305666     0.017941     1.880308
  174    9.330916    5.060133   17.373498    0.321326     0.049273     1.989504
  175    9.214466    5.129529   10.016218    0.302652     0.035232     1.781765
  176    9.881962    0.000598   22.623771    0.352856     0.091886     2.451147
  177    2.576558   12.726303   15.216946    0.351845     0.067978     2.363258
  178    3.442429   12.728390   21.261953    0.284270     0.028823     1.441747
  179    3.466901   12.725972   13.831118    0.314782     0.043605     1.740927
  180    9.780849    4.200915   22.726157    0.265081     0.045710     1.942452
  181    9.788367    4.227047   15.262998    0.301319     0.021686     2.104027
  182    9.310177    3.399053   21.385988    0.345239     0.086289     2.007260
  183    9.320458    3.413093   13.934144    0.334962     0.131381     1.901615
  184    6.096077    2.154338   22.727338    0.286086     0.043307     2.050761
  185    6.115779    2.136352   15.261030    0.294348     0.019242     2.055200
  186    5.638177    2.963685   21.387365    0.334013     0.063803     1.788867
  187    5.645416    2.946616   13.931143    0.317997     0.054747     1.717845
  188   12.156453    0.011150   26.326298    0.424598     0.055430   119.000943
  189   12.224143    0.003220   18.847837    0.350403     0.058504     2.270041
  190    4.809624   12.728212   11.307925    0.353250     0.091090     2.457362
  191   11.237296    0.004748   25.000839    0.300290     0.013030     1.500340
  192   11.273687    0.001947   17.531677    0.258040     0.049114     1.252651
  193    3.872668   12.726392    9.983106    0.305290     0.045065     1.528749
  194    8.697136    2.153689   26.462977    0.355189     0.039316   151.839749
  195    8.605746    2.173927   18.985894    0.290205     0.040955     1.978851
  196    8.691029    2.184657   11.604308    0.269861     0.044258     1.784428
  197    9.085677    2.990555   25.137272    0.325133     0.101120     2.210560
  198    9.067900    2.974148   17.641886    0.303886     0.072680     1.965534
  199    9.096590    3.025571   10.246230    0.319256     0.089096     1.560709
  200    4.870605    4.124429   26.463666    0.363364     0.037975   161.082376
  201    4.928705    4.187538   18.987911    0.294045     0.039629     1.995719
  202    4.901110    4.111026   11.597617    0.265076     0.047024     1.787979
  203    5.394960    3.365373   25.137912    0.349667     0.098891     2.042771
  204    5.390470    3.389799   17.642034    0.340183     0.071618     2.133324
  205    5.429022    3.343951   10.239145    0.310907     0.025151     1.438196
  206   -1.686120    7.158325   24.879167    0.303956     0.016429     1.834144
  207   -1.696651    7.179263   17.371087    0.322182     0.051358     1.985953
  208   -1.706249    7.316732   10.004262    0.308106     0.044151     1.730274
  209   -0.303654   10.611894   24.878232    0.309175     0.017995     1.906053
  210   -0.283768   10.610367   17.373646    0.320331     0.048869     1.977075
  211   -0.166760   10.545935   10.007017    0.305964     0.042627     1.770224
  212    1.676500    5.560570   21.070761    0.303038     0.017135     1.661915
  213    1.663897    5.533191   13.657933    0.262244     0.045438     1.464829
  214   -3.374166    8.494800   21.067464    0.300684     0.014550     1.585567
  215   -3.393772    8.518170   13.663247    0.256041     0.043760     1.487911
  216   -5.658651   11.414317   20.947415    0.308218     0.087436     1.953106
  217   -5.657093   11.414113   13.444649    0.333187     0.114722     1.907829
  218   -1.980427    7.684321   21.107513    0.309574     0.049998     1.698314
  219   -2.001320    7.695611   13.668265    0.297766     0.015486     1.611312
  220    1.680278    7.172364   21.109727    0.338915     0.111832     1.855450
  221    1.680432    7.149491   13.668216    0.291822     0.089579     1.677007
  222   -3.974023    8.491236   24.772599    0.312975     0.025876     1.887410
  223   -3.969562    8.486463   17.335417    0.304804     0.020193     1.695651
  224   -3.934449    8.435269    9.902762    0.000195     1.926044     0.076349
  225   -1.702706   11.401665   24.857420    0.313135     0.042303     1.843021
  226   -1.684092   11.414788   17.351013    0.307246     0.034654     1.758683
  227   -1.534602   11.378435    9.828666    0.316411     0.060847     1.610424
  228   -1.673884    5.551685   24.861209    0.329120     0.067219     1.932687
  229   -1.692668    5.564490   17.349291    0.341526     0.106467     1.863440
  230   -1.736857    5.716228    9.825812    0.347334     0.103535     1.750693
  231   -1.183238    6.356119   22.726944    0.286014     0.042522     2.044546
  232   -1.206189    6.364863   15.259504    0.294793     0.020037     2.033893
  233   -0.253234    6.364456   21.387316    0.334322     0.063127     1.794194
  234   -0.270621    6.363285   13.928240    0.319480     0.057121     1.728498
  235   -1.252200   10.571367   22.726157    0.269949     0.045282     1.952218
  236   -1.234548   10.589110   15.261768    0.296190     0.022657     2.073843
  237   -1.711643    9.762733   21.386184    0.344566     0.086007     2.003709
  238   -1.705573    9.777345   13.932225    0.336777     0.132575     1.911380
  239    9.756774    8.557730   22.623820    0.355223     0.091991     2.467127
  240    9.734243    8.595967   15.216798    0.351655     0.068044     2.363258
  241    9.301439    9.345604   21.262445    0.284605     0.028589     1.452400
  242    9.289476    9.367065   13.830676    0.315891     0.043934     1.751581
  243    1.136118    6.278627   26.463666    0.365474     0.038254   176.883000
  244    1.161206    6.362254   18.988108    0.290049     0.038656     1.979739
  245    1.109765    6.304975   11.592008    0.312615     0.063708     2.124446
  246    0.216953    6.354031   25.137862    0.346355     0.098234     2.027679
  247    0.239844    6.364074   17.642083    0.337135     0.045589     2.119119
  248    0.182722    6.374168   10.232453    0.306219     0.023613     1.422216
  249   -2.482809    8.609230   26.462731    0.366795     0.040021   153.303690
  250   -2.420351    8.539949   18.986140    0.292438     0.087421     1.979739
  251   -2.450224    8.617198   11.597519    0.259849     0.047360     1.748917
  252   -1.952575    9.364544   25.137174    0.325273     0.101898     2.208785
  253   -1.958476    9.340220   17.641985    0.302874     0.072717     1.960208
  254   -1.927552    9.389403   10.238653    0.317039     0.096214     1.562484
  255   -6.069371   10.532035   26.326200    0.420308     0.054938   119.394227
  256   -6.109305   10.588296   18.848378    0.348737     0.058905     2.271817
  257   -6.076558   10.530304   11.308712    0.353939     0.091819     2.457362
  258   -5.614536    9.733189   25.000692    0.302847     0.012145     1.510993
  259   -5.634973    9.765151   17.531972    0.256144     0.049869     1.246436
  260    9.086919    9.717444    9.983745    0.303238     0.045725     1.532300
  261    5.678809    7.177265   24.860717    0.314171     0.041294     1.952218
  262    5.655308    7.167286   17.356032    0.305882     0.039372     1.662803
  263    5.614926    7.026902    9.848543    0.333054     0.066909     1.654813
  264    7.050759   10.609030   24.701406    0.303615     0.008785     1.730274
  265    7.051413   10.606574   17.221321    0.300443     0.008863     1.981514
  266    7.033239   10.549613    9.754668    0.319918     0.053417     1.626404
  267    1.991164    7.692327   24.880692    0.300536     0.083722     2.052536
  268    1.982323    7.670421   17.377680    0.336884     0.118511     2.027679
  269    1.879057    7.601101   10.006132    0.320901     0.079549     1.601547
  270    9.029495    5.555427   21.106874    0.306655     0.050996     1.831480
  271    9.029128    5.578313   13.674267    0.300409     0.010860     1.693875
  272    3.965116    8.472958   21.061757    0.295253     0.020478     1.969973
  273    3.962243    8.462890   13.585018    0.295776     0.029863     1.634394
  274    1.695211   11.399959   21.069383    0.327574     0.095226     1.811949
  275    1.723607   11.402607   13.664526    0.321334     0.090034     1.870542
  276    0.296622   10.597371   21.107464    0.305168     0.050596     1.829705
  277    0.315038   10.607987   13.670184    0.287260     0.011638     1.614863
  278    5.355967    7.670307   21.061855    0.293855     0.020455     1.679671
  279    5.347993    7.662071   13.585067    0.296951     0.030572     1.812837
  280    9.024910    7.167859   21.068645    0.324947     0.094982     1.796857
  281    9.012784    7.195938   13.668068    0.319567     0.090016     1.855450
  282    3.376752    8.505569   24.860963    0.313351     0.040655     1.959320
  283    3.379009    8.482059   17.355146    0.305205     0.038336     1.655701
  284    3.282937    8.376272    9.842835    0.329551     0.040301     1.722284
  285    5.662561   11.410855   24.701603    0.303629     0.008970     2.036556
  286    5.659489   11.409836   17.220829    0.299644     0.008896     1.731162
  287    5.622862   11.362893    9.752307    0.317155     0.050583     1.698314
  288    5.667301    5.570663   24.880495    0.301037     0.083554     1.953106
  289    5.650986    5.551825   17.378664    0.337952     0.118101     2.142202
  290    5.645063    5.424387   10.015775    0.313858     0.086095     1.697426
  291    6.169205    6.370998   22.728863    0.291566     0.045691     2.099588
  292    6.139398    6.361019   15.267032    0.309862     0.021651     2.132436
  293    7.096726    6.363196   21.387464    0.335565     0.064149     1.935350
  294    7.077832    6.363234   13.937932    0.317168     0.049626     1.835031
  295    6.105358   10.574918   22.567289    0.329445     0.050106     2.229204
  296    6.101677   10.566402   15.097930    0.335413     0.063056     2.262939
  297    5.630263    9.751697   21.249358    0.361047     0.124559     1.858114
  298    5.630998    9.750959   13.773603    0.357584     0.122476     1.934462
  299    2.433329    8.527449   22.728962    0.293925     0.044824     2.101364
  300    2.438348    8.499281   15.265408    0.307268     0.022075     2.120895
  301    1.962797    9.327211   21.387808    0.333696     0.063893     1.914043
  302    1.971160    9.311912   13.935374    0.318329     0.052113     1.844797
  303    8.491618    6.456764   26.465043    0.361280     0.031636   180.040816
  304    8.512731    6.366403   18.986927    0.290398     0.041432     1.964647
  305    8.461554    6.427297   11.605735    0.286176     0.048540     1.899839
  306    7.570396    6.378330   25.140372    0.338352     0.053107     2.001933
  307    7.589113    6.366785   17.643165    0.332447     0.046660     2.038332
  308    7.529058    6.361745   10.248837    0.313691     0.028436     1.450625
  309    5.017633    8.687842   26.410874    0.433025     0.049655   141.484738
  310    4.940918    8.558405   18.925623    0.301795     0.037436     2.074731
  311    4.864490    8.426919   11.430680    0.316570     0.037457     2.228316
  312    5.420468    9.388372   25.017568    0.343593     0.116830     1.791530
  313    5.395467    9.345451   17.557901    0.356234     0.092753     2.071180
  314    5.323874    9.219337   10.098874    0.344006     0.125384     1.977075
  315    1.346309   10.581906   26.464945    0.358668     0.032229   199.708589
  316    1.257285   10.555023   18.987960    0.292155     0.040878     1.969973
  317    1.333713   10.537839   11.599241    0.280964     0.049626     1.882971
  318    1.739260    9.744429   25.140618    0.341779     0.095990     2.015250
  319    1.718830    9.755554   17.643756    0.332987     0.047035     2.023240
  320    1.745029    9.700681   10.240916    0.311019     0.025653     1.577577
  321   13.012983    1.322130   24.692500    0.296139     0.092379     1.806623
  322   13.006031    1.326254   17.214581    0.297178     0.093149     1.797745
  323   12.963776    1.370550    9.755308    0.332447     0.110764     1.827041
  324   11.311335    4.255928   21.056246    0.305814     0.022410     1.710743
  325   11.306191    4.269217   13.571439    0.267236     0.036040     1.490575
  326    9.338573    7.691563   24.774616    0.333297     0.103622     2.339288
  327    9.333730    7.681928   17.336450    0.313618     0.108357     1.864328
  328    9.352874    7.618781    9.907436    0.307995     0.078857     1.534963
  329    7.643546   10.608598   20.948793    0.296260     0.015696     1.971749
  330    7.646816   10.612403   13.448634    0.316194     0.033721     1.905166
  331   -1.969830   11.924466   21.056345    0.304802     0.022253     1.704528
  332   -1.956007   11.925853   13.571143    0.265935     0.035991     1.503891
  333   -5.360846   11.930028   24.693140    0.299642     0.093017     1.813725
  334   -5.354931   11.927826   17.215122    0.297165     0.093598     1.795082
  335   -5.294501   11.915645    9.755111    0.331055     0.107432     1.794194
  336    5.365021   11.923893   20.948104    0.294687     0.015898     1.718733
  337    5.367901   11.926082   13.448684    0.317977     0.034274     1.772887
  338    1.992913   11.932930   24.774173    0.339737     0.103444     2.393442
  339    1.985005   11.924147   17.337483    0.313449     0.109156     1.866991
  340    1.920372   11.910821    9.904336    0.324360     0.075198     1.737376
  341    2.470514    0.002228   21.566897    7.358343     0.682675    25.229684
  342    2.483639    0.000853   14.092963    7.354364     0.671972    25.362851
  343    2.465392    0.003106   24.319414    7.401545     0.696917    26.307443
  344    2.486234    0.002087   16.858911    7.399158     0.701747    25.637173
  345    2.582011    0.001922    9.487756    7.304333     0.697261    19.955412
  346    2.431161    4.210920   21.634351    7.372264     0.701854    25.345095
  347    2.410665    4.179188   14.219851    7.356957     0.737585    25.337105
  348    2.448541    4.240234   24.384998    7.379533     0.688993    26.404211
  349    2.446101    4.238197   16.958788    7.375578     0.667961    25.092967
  350    2.506325    4.338028    9.475948    7.334514     0.662404    19.258508
  351   -1.233718    2.140476   21.566209    7.366452     0.682464    25.229684
  352   13.455443    2.149208   14.092126    7.362434     0.673138    25.373504
  353   -1.229404    2.136492   24.318577    7.402042     0.696575    26.295015
  354   -1.242676    2.153981   16.857976    7.399340     0.703307    25.605213
  355   13.404464    2.235292    9.487018    7.308118     0.649393    19.952748
  356   -2.550661   12.726761   25.438674    7.371417     0.704512    42.990515
  357    4.861014    0.001527   17.927495    7.344430     0.667353    25.072548
  358    5.025158    0.003895   10.416857    7.415010     0.695793    23.721354
  359   -2.439679   12.727754   20.673221    7.371344     0.690809    25.305145
  360   -2.419844   12.726494   13.175966    7.404002     0.720936    25.495129
  361    1.247056    2.159582   25.347013    7.412910     0.730535    40.723138
  362    1.227170    2.127251   17.847790    7.323352     0.721123    24.975781
  363    1.253780    2.173673   10.313536    7.327538     0.708621    23.228639
  364    1.239023    2.146306   20.589581    7.392685     0.708497    25.278512
  365    1.234504    2.139445   13.089816    7.372840     0.687751    25.563488
  366   12.296787    4.153743   25.438034    7.379840     0.713781    43.051772
  367   -2.429023    4.211136   17.926904    7.344696     0.667643    25.054793
  368   -2.508420    4.353773   10.417299    7.412786     0.695546    23.681404
  369   12.241795    4.250799   20.672926    7.368918     0.690280    25.290941
  370   12.231602    4.266799   13.176507    7.403074     0.721288    25.484476
  371    2.490128   12.727359   21.631252    7.369819     0.688118    25.011292
  372    2.525271   12.725068   14.223738    7.340660     0.686304    25.029047