    #         X           Y           Z       CHARGE      MIN DIST   ATOMIC VOL
 --------------------------------------------------------------------------------
    1    0.000000    0.000000    0.000000   10.989625     1.266394    85.871835
    2    2.937313    1.698387    2.332788   10.974030     1.255469    17.328485
    3    0.001676    3.388857    4.635760   10.984184     1.251824    17.370210
    4    0.000103    0.001629    7.021537   11.016785     1.293337    24.776919
    5   13.227930    2.545716    0.000000   11.049763     1.283384   143.148429
    6    1.473246    4.244613    2.328852   10.982717     1.251405    17.356006
    7    1.461914    0.846667    4.640926   10.960085     1.252778    17.263677
    8   13.227173    2.545194    6.971598   11.072478     1.265515    22.470479
    9    1.469770    2.545716    0.000000   11.032061     1.265736   105.421533
   10   -1.469888    4.244956    2.335002   10.996028     1.254882    17.446559
   11    4.405202    0.851453    4.633005   11.005876     1.269513    17.490060
   12    1.460084    2.530340    7.000577   11.075013     1.294194    23.858959
   13    2.939540    0.000000    0.000000   11.050871     1.277207   165.722778
   14   -0.003175    1.699138    2.329787   10.951889     1.252925    17.202421
   15    2.928135    3.393974    4.643337   10.979297     1.252816    17.391517
   16    2.938394    0.002520    6.971943   11.072899     1.269934    22.464264
   17    5.879080    0.000000    0.000000   11.053304     1.279084   136.647251
   18    8.818693    1.696491    2.335248   10.958556     1.261431    17.244146
   19    5.871981    3.387686    4.641369   10.946082     1.253523    17.197982
   20    5.861751    0.002749    6.980799   11.050686     1.284688    24.006330
   21    4.409310    2.545716    0.000000   11.035242     1.276717   111.682124
   22    7.348879    4.242920    2.342972   10.930586     1.264033    17.104765
   23    7.337944    0.847265    4.633202   10.970147     1.253351    17.312505
   24    4.384081    2.547969    6.984981   11.038345     1.270562    23.628138
   25    7.348850    2.545716    0.000000   11.011367     1.277943   195.429512
   26    4.409406    4.243314    2.335199   10.967600     1.256857    17.293861
   27   10.294776    0.838012    4.643337   10.974422     1.268213    17.363996
   28    7.364444    2.550400    6.966728   11.053988     1.286504    23.188689
   29    8.818620    0.000000    0.000000   11.042867     1.274097   122.267068
   30    5.879712    1.701353    2.325949   10.983429     1.262580    17.348016
   31    8.827586    3.391225    4.641418   10.952454     1.265322    17.237932
   32    1.443505   12.728301    6.958856   11.049934     1.252988    23.367132
   33   11.758160    0.000000    0.000000   11.008286     1.283384   126.163513
   34   11.757646    3.388959    4.632808   11.006062     1.260203    17.492723
   35   11.778017    0.000102    7.001069   11.077161     1.288876    23.815458
   36   10.288390    2.545716    0.000000   11.023344     1.273933   123.604057
   37   13.234309    0.843345    4.640779   10.962471     1.256907    17.274330
   38   10.299266    2.522117    6.984833   11.049540     1.293661    23.692945
   39   10.284062    4.241049    2.325998   10.985843     1.251962    17.363108
   40   11.758351    1.694301    2.332689   10.970826     1.254991    17.306290
   41   -2.939540    5.091432    0.000000   11.055131     1.274097   135.783446
   42   -0.003792    6.786243    2.329787   10.946862     1.260313    17.162471
   43   -2.938482    8.491644    4.632267   10.986244     1.250276    17.364883
   44   11.762812    5.074694    6.980504   11.049955     1.283220    23.991238
   45   -4.409310    7.637149    0.000000   11.041874     1.279084   124.488282
   46   -1.469241    9.337942    2.329737   10.950627     1.249659    17.188216
   47   -1.466522    5.937679    4.651504   10.974628     1.268636    17.369322
   48   10.301368    7.614390    6.958462   11.047975     1.288290    23.339611
   49   -1.469770    7.637149    0.000000   11.004722     1.274587   161.037100
   50   -4.408854    9.331043    2.328950   10.977840     1.267577    17.325821
   51    1.464383    5.937743    4.632464   10.976237     1.258961    17.316056
   52   -1.474121    7.656878    6.968499   11.056543     1.267710    23.247282
   53    0.000000    5.091432    0.000000   11.043093     1.283709   131.931389
   54   -2.936747    6.785937    2.333477   10.971029     1.262141    17.308954
   55    0.000309    8.484643    4.630348   10.930423     1.259804    17.059489
   56    0.015359    5.068750    6.985621   11.041359     1.282302    23.656547
   57    2.939540    5.091432    0.000000   11.027617     1.283391   122.599984
   58    5.882490    6.786472    2.325851   10.968104     1.252463    17.262789
   59    2.939944    8.490231    4.651308   10.976134     1.258300    17.374649
   60    2.953664    5.114573    6.959249   11.059781     1.270679    23.456797
   61    1.469770    7.637149    0.000000   11.011415     1.284358   165.420934
   62    4.407480    9.333372    2.335051   10.996619     1.249175    17.444783
   63    4.414212    5.950115    4.633054   10.959147     1.250095    17.241483
   64    1.455660    7.623860    6.968302   11.049651     1.284915    23.194903
   65    4.409310    7.637149    0.000000   11.054514     1.268695   131.685475
   66    1.473239    9.331654    2.329787   10.955403     1.256368    17.212186
   67    7.346756    5.949581    4.641172   10.956906     1.264530    17.261902
   68    4.421943    7.651265    6.980454   11.041576     1.280901    23.842092
   69    5.879080    5.091432    0.000000   11.010200     1.280628   163.517544
   70    2.940341    6.792620    2.333477   10.969103     1.251761    17.291198
   71    5.884621    8.488920    4.632808   11.000808     1.252228    17.465202
   72    5.875751    5.075280    6.966728   11.053704     1.277000    23.202893
   73    8.818620    5.091432    0.000000   11.029794     1.277943   163.096738
   74    8.824198    8.497359    4.643337   10.979599     1.247385    17.397731
   75    8.806090    5.102341    6.966580   11.039644     1.274423    23.049308
   76    7.348850    7.637149    0.000000   11.034869     1.276717   118.715967
   77   10.293865    5.931506    4.632907   10.973248     1.267413    17.323158
   78    7.364099    7.658800    6.984784   11.057179     1.284006    23.774621
   79    7.351305    9.336287    2.332542   10.972691     1.257474    17.319607
   80    8.818620    6.789349    2.334953   10.962604     1.270574    17.274330
   81   -5.879080   10.182865    0.000000   11.015572     1.277207   122.051339
   82   -2.937350   11.878694    2.335002   10.998676     1.268756    17.459875
   83   -5.888913   10.201245    7.001020   11.080332     1.286491    23.835877
   84   -4.414998   11.033643    4.636105   10.982402     1.267588    17.356894
   85   -1.473503   11.028679    4.651455   10.968676     1.262072    17.340914
   86   -2.939540   10.182865    0.000000   11.029518     1.280549   123.010136
   87   -5.875428   11.882092    2.329688   10.944160     1.257344    17.154481
   88   -2.968120   10.181401    6.985621   11.050384     1.273077    23.719579
   89    0.000000   10.182865    0.000000   11.021371     1.274587   182.084475
   90    2.936556   11.881494    2.328999   10.982505     1.261031    17.360445
   91    0.019305   10.176437    6.968154   11.044423     1.279694    23.084819
   92    1.474385   11.027152    4.632119   10.982993     1.256183    17.353342
   93    4.414359   11.035871    4.635957   10.986739     1.264680    17.381751
   94    2.939540   10.182865    0.000000   11.041901     1.283709   123.409635
   95   -0.003799   11.878223    2.333231   10.971876     1.246809    17.314280
   96    2.953224   10.208678    6.985227   11.050746     1.278341    23.752426
   97    5.879080   10.182865    0.000000   11.046333     1.265736   151.064721
   98    5.881645   10.183692    6.972041   11.089108     1.282078    22.638268
   99    7.350886   11.040911    4.640828   10.981866     1.254485    17.387078
  100    5.879198   11.876606    2.329737   10.946642     1.249286    17.174012
  101    2.017201    0.806279   14.694733    0.292543     0.043911     4.278189
  102    3.391347    4.266213   14.500145    0.322737     0.048177     9.049093
  103    0.308777    2.134901   10.881849    0.292857     0.042891     1.678783
  104   -1.960644    5.001365   10.707778    0.310231     0.058439     1.864328
  105    1.695159    1.334770   10.881357    0.293177     0.043504     1.586454
  106    5.311609    0.801328   10.709058    0.308094     0.057884     1.851011
  107   -0.309732    2.150150   14.694585    0.293395     0.043789    11.769236
  108    1.999725    5.069819   14.502901    0.310906     0.050186     8.511989
  109   -4.940264   12.721097    9.258974    0.432339     0.098380     2.565670
  110   -3.913035   12.725132   10.530952    0.316377     0.067712     1.428430
  111    2.308972    4.013843    9.157031    0.383912     0.065188     2.247847
  112    1.916587    3.321587   10.575134    0.345477     0.136938     1.713406
  113   13.488733    2.083401    9.258777    0.428497     0.094678     2.568334
  114   12.977658    2.974364   10.530706    0.316551     0.067741     1.430206
  115    4.757763    0.000535   12.926520    0.370660     0.073790     2.729909
  116    3.884345    0.001133   14.320564    0.322581     0.052778     2.578099
  117    1.263186    2.186757   13.083764    0.305843     0.026547     2.187478
  118    1.740340    3.013110   14.399088    0.327868     0.111380     1.874981
  119   -2.376655    4.121044   12.925782    0.369413     0.074717     2.731684
  120   -1.940530    3.364304   14.320023    0.322038     0.052199     2.602069
  121    9.307194    0.804026   14.507575    0.323080     0.053979     9.119227
  122   10.716100    4.218341   14.502015    0.294620     0.044479     1.684997
  123    5.643241    1.344775   14.502950    0.301563     0.066806     1.859001
  124    7.648169    2.120429   10.611346    0.299087     0.017392     1.679671
  125    5.362081    5.043331   10.607705    0.332817     0.106530     2.221214
  126    3.971407    4.218659   10.632649    0.283168     0.026448     1.519871
  127    9.058707    1.331588   10.635011    0.289622     0.027476     1.629068
  128   12.689325    0.799597   10.885982    0.326523     0.091686     1.784428
  129    7.040176    2.146484   14.466148    0.315964     0.025206     2.061414
  130    9.322979    5.026886   14.464032    0.305576     0.019880     2.016138
  131    2.719501   12.727054    9.156588    0.351079     0.065981     2.064077
  132   10.861630    0.000662   10.576856    0.323963     0.064085     1.546504
  133    9.852309    4.126682    9.084756    0.403915     0.072143     2.176825
  134    9.291533    3.348610   10.399833    0.331346     0.113810     1.834144
  135    5.994082    2.128461    9.083329    0.419725     0.073784     2.256725
  136    5.599809    3.004785   10.396930    0.305641     0.036323     1.571362
  137   12.168218    0.000267   13.088389    0.303437     0.022230     2.165284
  138   11.216388    0.000484   14.405484    0.304543     0.040498     1.661915
  139    8.611596    2.197093   12.831514    0.345230     0.061754     2.624264
  140    9.072765    2.992833   14.189100    0.304828     0.087840     1.779102
  141    4.946423    4.172531   12.825954    0.362856     0.067141     2.702388
  142    5.404418    3.377249   14.185853    0.309677     0.024950     1.843021
  143   -1.661781    7.169093   14.471117    0.277453     0.024959     1.827929
  144   -0.308439   10.587163   14.468756    0.288809     0.020476     1.876757
  145    1.666572    5.549559   10.638554    0.285290     0.028337     1.526086
  146   -3.374239    8.511195   10.640915    0.293139     0.029510     1.649486
  147   -5.652934   11.389089   10.886671    0.327075     0.091739     1.784428
  148   -1.986240    7.683493   10.615921    0.298888     0.013803     1.672569
  149    1.686054    7.166102   10.612526    0.329701     0.105239     1.965534
  150   -3.957892    8.461897   14.509936    0.321405     0.055777     8.812945
  151   -1.705117   11.389496   14.504918    0.295279     0.047066     2.594967
  152   -1.657460    5.558393   14.504967    0.304927     0.064981     2.817799
  153   -1.149184    6.261316    9.084018    0.422853     0.073081     2.270929
  154   -0.196729    6.353242   10.400424    0.305606     0.032873     1.563372
  155   -1.349896   10.589237    9.085690    0.397319     0.071778     2.165284
  156   -1.744911    9.719544   10.403376    0.332291     0.113615     1.835919
  157   -5.021969    8.726333    9.156539    0.343136     0.067296     2.044546
  158   -5.428096    9.408025   10.576758    0.323408     0.064090     1.536739
  159    1.139998    6.371215   12.832203    0.360813     0.061196     2.697949
  160    0.222251    6.368758   14.191905    0.314619     0.028992     1.848348
  161   -2.401685    8.555299   12.836877    0.340502     0.056918     2.645570
  162   -1.944528    9.353229   14.194463    0.306692     0.088818     1.773775
  163    8.612867   10.537585   13.088487    0.300533     0.022264     2.177713
  164    9.088918    9.713524   14.405681    0.303473     0.040646     1.665466
  165    5.688877    7.168839   14.502064    0.303284     0.045208     1.846572
  166    7.037362   10.575974   14.695274    0.291066     0.046107     1.921146
  167    1.971704    7.703248   14.467673    0.294646     0.082057     1.766673
  168    9.037645    5.567634   10.611247    0.304917     0.016747     1.808398
  169    3.995276    8.529829   10.705761    0.309983     0.050569     1.785316
  170    1.711268   11.401321   10.638111    0.308784     0.090890     1.712518
  171    0.302148   10.609387   10.615134    0.304712     0.013005     1.819939
  172    5.388037    7.725701   10.706696    0.311361     0.049924     1.858114
  173    9.019743    7.184011   10.632895    0.312368     0.092253     1.738264
  174    3.364708    8.511258   14.503934    0.307443     0.046763     2.806257
  175    5.639794   11.382979   14.695077    0.292145     0.046080     2.135099
  176    5.685328    5.558686   14.462950    0.295963     0.082122     1.806623
  177    6.201327    6.470956    9.083083    0.415459     0.075320     2.260276
  178    7.154848    6.377668   10.398800    0.311731     0.035855     1.467492
  179    6.144969   10.645434    9.259811    0.394526     0.044792     2.376574
  180    5.630586    9.753683   10.529673    0.345282     0.119836     1.671681
  181    2.496779    8.605959    9.083722    0.419302     0.074782     2.276256
  182    1.944072    9.384745   10.401654    0.313474     0.032895     1.452400
  183    8.490009    6.363043   12.829841    0.361371     0.063411     2.699724
  184    7.570763    6.360434   14.188313    0.309458     0.026016     1.703641
  185    4.967712    8.605857   12.923420    0.372218     0.074836     2.742338
  186    5.405050    9.362253   14.317169    0.318903     0.105499     2.767195
  187    1.264017   10.533206   12.834613    0.359383     0.058928     2.709490
  188    1.723026    9.736677   14.192938    0.322313     0.087574     1.764897
  189   12.990055    1.343820   14.696111    0.309082     0.070515    15.039800
  190   11.344030    4.198561   10.710091    0.302279     0.049168     1.833256
  191    9.348009    7.658596   14.506935    0.322566     0.065232     8.757903
  192    7.659052   10.588512   10.886179    0.350167     0.091631     1.887410
  193   -2.036322   11.922124   10.709500    0.303355     0.049981     1.847460
  194   -5.331289   11.921143   14.696012    0.307928     0.070667    15.215580
  195    5.340858   11.927839   10.886720    0.353389     0.091804     2.088047
  196    1.958182   11.925624   14.508559    0.317555     0.063923     8.528857
  197   -4.920018   12.724521   10.242392    7.279138     0.697836    21.901415
  198   -4.800798   12.728352   14.962039    7.325592     0.697981   332.957436
  199    2.390610    4.145139   10.126230    7.309991     0.685689    21.538315
  200    2.451326    4.243913   14.845680    7.291705     0.692354   256.684228
  201   13.480223    2.101832   10.242195    7.282474     0.697631    21.892537
  202   -1.273644    2.206881   14.962039    7.323611     0.697389   388.369703
  203    4.841738    0.002482   13.904722    7.307778     0.708411    26.437059
  204   -2.532553   12.725793   11.046179    7.371536     0.696023    24.437789
  205    1.246630    2.158335   14.066050    7.368317     0.755491    27.006122
  206    1.255095    2.173176   11.214936    7.387942     0.707459    24.612680
  207   -2.418022    4.194067   13.903984    7.309977     0.708171    26.428181
  208   12.288512    4.170672   11.045834    7.370000     0.697354    24.437789
  209    9.912188    0.001706   10.125492    7.361287     0.723623    21.707880
  210    9.795775    0.000751   14.853257    7.289286     0.675770   258.947167
  211    9.811259    4.194195   10.063352    7.303677     0.717043    21.360760
  212    9.750785    4.173664   14.766910    7.323805     0.683921   214.945475
  213    6.071657    2.131235   10.062072    7.308159     0.715790    21.293289
  214    6.087008    2.203216   14.768091    7.317904     0.632505   246.746472
  215   12.202993    0.000293   14.070675    7.389371     0.697893    27.117982
  216    4.834367   12.728046   11.220201    7.297225     0.626736    24.186548
  217    8.586095    2.149157   13.811635    7.351849     0.724966    26.357159
  218    8.593231    2.166124   10.940841    7.386053     0.669091    24.239815
  219    4.916777    4.219805   13.806075    7.326323     0.694024    26.076622
  220    4.927294    4.202812   10.936757    7.364408     0.702283    24.224723
  221   -1.188493    6.325048   10.062860    7.304642     0.716622    21.289738
  222   -1.136426    6.371495   14.772322    7.351157     0.710105   248.103880
  223   -1.273335   10.591961   10.064385    7.307998     0.718111    21.360760
  224   -1.261430   10.531450   14.771190    7.339955     0.695120   222.184394
  225   -4.950097    8.587566   10.125492    7.369675     0.723727    21.704329
  226    9.799030    8.483217   14.853699    7.284898     0.677257   258.180129
  227    1.195878    6.368644   13.812275    7.323392     0.691595    26.052652
  228    1.175544    6.369853   10.942956    7.366653     0.704681    24.227386
  229   -2.431492    8.509680   13.817096    7.355639     0.730408    26.342954
  230   -2.418727    8.524433   10.946942    7.384870     0.669769    24.191875
  231    8.595729   10.567930   14.070724    7.393387     0.697964    27.090461
  232    8.605055   10.550301   11.220201    7.298757     0.626173    24.203416
  233    6.162951    6.402196   10.061728    7.304314     0.715538    21.345668
  234    6.210131    6.355330   14.767550    7.331093     0.697472   217.525350
  235    6.134548   10.625985   10.243228    7.294756     0.698683    22.029255
  236    6.072715   10.519090   14.959579    7.342742     0.697987   305.820811
  237    2.461262    8.538536   10.062515    7.298977     0.716408    21.346555
  238    2.399980    8.556216   14.771141    7.327981     0.697465   225.288057
  239    8.544537    6.362814   13.810011    7.327585     0.691514    26.328750
  240    8.527980    6.365194   10.939857    7.364221     0.672255    24.216733
  241    4.926427    8.533050   13.901623    7.309762     0.717488    26.595970
  242    4.939280    8.557043   11.042833    7.354270     0.691829    24.219396
  243    1.237363   10.580824   13.814784    7.316541     0.689663    26.250626
  244    1.247225   10.566364   10.945121    7.368838     0.672913    24.203416
 --------------------------------------------------------------------------------
    VACUUM CHARGE:               0.0000
    VACUUM VOLUME:               0.0000
    NUMBER OF ELECTRONS:      1484.0001
