  93  93   0   0
  0.1016658E+02  0.9814900E-09  0.9814900E-09  0.9814900E-09  0.5000000E-15
  1.000000000000000E-004
  CAR 
 ice                                     
      9.68170867    -25.67039764  301     -1.74869062      1.00000000
    -25.670  0.0000E+00  0.0000E+00
    -25.553  0.0000E+00  0.0000E+00
    -25.435  0.0000E+00  0.0000E+00
    -25.317  0.0000E+00  0.0000E+00
    -25.199  0.0000E+00  0.0000E+00
    -25.081  0.0000E+00  0.0000E+00
    -24.963  0.0000E+00  0.0000E+00
    -24.846  0.0000E+00  0.0000E+00
    -24.728  0.0000E+00  0.0000E+00
    -24.610  0.0000E+00  0.0000E+00
    -24.492  0.3202E-02  0.3773E-03
    -24.374  0.3054E-01  0.3976E-02
    -24.256  0.3158E+00  0.4119E-01
    -24.138  0.2734E+01  0.3634E+00
    -24.021  0.8814E+01  0.1402E+01
    -23.903  0.4428E+01  0.1924E+01
    -23.785  0.7220E+00  0.2009E+01
    -23.667  0.1299E+01  0.2162E+01
    -23.549  0.7188E+01  0.3010E+01
    -23.431  0.1123E+02  0.4333E+01
    -23.314  0.1069E+02  0.5593E+01
    -23.196  0.5923E+01  0.6291E+01
    -23.078  0.1063E+02  0.7546E+01
    -22.960  0.1277E+02  0.9056E+01
    -22.842  0.9771E+01  0.1021E+02
    -22.724  0.1653E+02  0.1216E+02
    -22.607  0.2364E+02  0.1494E+02
    -22.489  0.1857E+02  0.1713E+02
    -22.371  0.3253E+02  0.2097E+02
    -22.253  0.2614E+02  0.2405E+02
    -22.135  0.2033E+02  0.2645E+02
    -22.017  0.2945E+02  0.2993E+02
    -21.900  0.3518E+02  0.3408E+02
    -21.782  0.3046E+02  0.3767E+02
    -21.664  0.2635E+02  0.4078E+02
    -21.546  0.1024E+02  0.4199E+02
    -21.428  0.7762E+01  0.4291E+02
    -21.310  0.9989E+01  0.4410E+02
    -21.192  0.1321E+02  0.4565E+02
    -21.075  0.1936E+02  0.4793E+02
    -20.957  0.1649E+02  0.4988E+02
    -20.839  0.1341E+02  0.5146E+02
    -20.721  0.1250E+02  0.5294E+02
    -20.603  0.9447E+01  0.5405E+02
    -20.485  0.1076E+02  0.5532E+02
    -20.368  0.1451E+02  0.5703E+02
    -20.250  0.7535E+01  0.5792E+02
    -20.132  0.4995E+01  0.5851E+02
    -20.014  0.1140E+02  0.5986E+02
    -19.896  0.1192E+02  0.6126E+02
    -19.778  0.5417E+01  0.6190E+02
    -19.661  0.7172E+00  0.6199E+02
    -19.543  0.7125E-01  0.6200E+02
    -19.425  0.0000E+00  0.6200E+02
    -19.307  0.0000E+00  0.6200E+02
    -19.189  0.0000E+00  0.6200E+02
    -19.071  0.0000E+00  0.6200E+02
    -18.953  0.0000E+00  0.6200E+02
    -18.836  0.0000E+00  0.6200E+02
    -18.718  0.0000E+00  0.6200E+02
    -18.600  0.0000E+00  0.6200E+02
    -18.482  0.0000E+00  0.6200E+02
    -18.364  0.0000E+00  0.6200E+02
    -18.246  0.0000E+00  0.6200E+02
    -18.129  0.0000E+00  0.6200E+02
    -18.011  0.0000E+00  0.6200E+02
    -17.893  0.0000E+00  0.6200E+02
    -17.775  0.0000E+00  0.6200E+02
    -17.657  0.0000E+00  0.6200E+02
    -17.539  0.0000E+00  0.6200E+02
    -17.422  0.0000E+00  0.6200E+02
    -17.304  0.0000E+00  0.6200E+02
    -17.186  0.0000E+00  0.6200E+02
    -17.068  0.0000E+00  0.6200E+02
    -16.950  0.0000E+00  0.6200E+02
    -16.832  0.0000E+00  0.6200E+02
    -16.715  0.0000E+00  0.6200E+02
    -16.597  0.0000E+00  0.6200E+02
    -16.479  0.0000E+00  0.6200E+02
    -16.361  0.0000E+00  0.6200E+02
    -16.243  0.0000E+00  0.6200E+02
    -16.125  0.0000E+00  0.6200E+02
    -16.007  0.0000E+00  0.6200E+02
    -15.890  0.0000E+00  0.6200E+02
    -15.772  0.0000E+00  0.6200E+02
    -15.654  0.0000E+00  0.6200E+02
    -15.536  0.0000E+00  0.6200E+02
    -15.418  0.0000E+00  0.6200E+02
    -15.300  0.0000E+00  0.6200E+02
    -15.183  0.0000E+00  0.6200E+02
    -15.065  0.0000E+00  0.6200E+02
    -14.947  0.0000E+00  0.6200E+02
    -14.829  0.0000E+00  0.6200E+02
    -14.711  0.0000E+00  0.6200E+02
    -14.593  0.0000E+00  0.6200E+02
    -14.476  0.0000E+00  0.6200E+02
    -14.358  0.0000E+00  0.6200E+02
    -14.240  0.0000E+00  0.6200E+02
    -14.122  0.0000E+00  0.6200E+02
    -14.004  0.0000E+00  0.6200E+02
    -13.886  0.0000E+00  0.6200E+02
    -13.769  0.0000E+00  0.6200E+02
    -13.651  0.0000E+00  0.6200E+02
    -13.533  0.0000E+00  0.6200E+02
    -13.415  0.0000E+00  0.6200E+02
    -13.297  0.0000E+00  0.6200E+02
    -13.179  0.0000E+00  0.6200E+02
    -13.061  0.0000E+00  0.6200E+02
    -12.944  0.0000E+00  0.6200E+02
    -12.826  0.0000E+00  0.6200E+02
    -12.708  0.7587E-03  0.6200E+02
    -12.590  0.7247E-02  0.6200E+02
    -12.472  0.7614E-01  0.6201E+02
    -12.354  0.7640E+00  0.6210E+02
    -12.237  0.5212E+01  0.6271E+02
    -12.119  0.8442E+01  0.6371E+02
    -12.001  0.2231E+01  0.6397E+02
    -11.883  0.5320E+00  0.6403E+02
    -11.765  0.2542E+01  0.6434E+02
    -11.647  0.9043E+01  0.6540E+02
    -11.530  0.7757E+01  0.6632E+02
    -11.412  0.9592E+01  0.6745E+02
    -11.294  0.4264E+01  0.6795E+02
    -11.176  0.1962E+01  0.6818E+02
    -11.058  0.8610E+01  0.6920E+02
    -10.940  0.1565E+02  0.7105E+02
    -10.823  0.1209E+02  0.7247E+02
    -10.705  0.1024E+02  0.7368E+02
    -10.587  0.5900E+01  0.7438E+02
    -10.469  0.1869E+02  0.7658E+02
    -10.351  0.3577E+02  0.8080E+02
    -10.233  0.2920E+02  0.8424E+02
    -10.115  0.1418E+02  0.8591E+02
     -9.998  0.9813E+01  0.8707E+02
     -9.880  0.1107E+02  0.8838E+02
     -9.762  0.2313E+02  0.9111E+02
     -9.644  0.3039E+02  0.9469E+02
     -9.526  0.2689E+02  0.9786E+02
     -9.408  0.3177E+02  0.1016E+03
     -9.291  0.2799E+02  0.1049E+03
     -9.173  0.1364E+02  0.1065E+03
     -9.055  0.1687E+02  0.1085E+03
     -8.937  0.1786E+02  0.1106E+03
     -8.819  0.2351E+02  0.1134E+03
     -8.701  0.2261E+02  0.1161E+03
     -8.584  0.1602E+02  0.1180E+03
     -8.466  0.1524E+02  0.1198E+03
     -8.348  0.1597E+02  0.1216E+03
     -8.230  0.9309E+01  0.1227E+03
     -8.112  0.1390E+02  0.1244E+03
     -7.994  0.1769E+02  0.1265E+03
     -7.877  0.1723E+02  0.1285E+03
     -7.759  0.1436E+02  0.1302E+03
     -7.641  0.1715E+02  0.1322E+03
     -7.523  0.2204E+02  0.1348E+03
     -7.405  0.1588E+02  0.1367E+03
     -7.287  0.1837E+02  0.1389E+03
     -7.169  0.2088E+02  0.1413E+03
     -7.052  0.2192E+02  0.1439E+03
     -6.934  0.1920E+02  0.1462E+03
     -6.816  0.2010E+02  0.1485E+03
     -6.698  0.2822E+02  0.1519E+03
     -6.580  0.2919E+02  0.1553E+03
     -6.462  0.2384E+02  0.1581E+03
     -6.345  0.2110E+02  0.1606E+03
     -6.227  0.1689E+02  0.1626E+03
     -6.109  0.1821E+02  0.1648E+03
     -5.991  0.1907E+02  0.1670E+03
     -5.873  0.1961E+02  0.1693E+03
     -5.755  0.2079E+02  0.1718E+03
     -5.638  0.2320E+02  0.1745E+03
     -5.520  0.2549E+02  0.1775E+03
     -5.402  0.2711E+02  0.1807E+03
     -5.284  0.2888E+02  0.1841E+03
     -5.166  0.2174E+02  0.1867E+03
     -5.048  0.2162E+02  0.1892E+03
     -4.930  0.1909E+02  0.1915E+03
     -4.813  0.2561E+02  0.1945E+03
     -4.695  0.2746E+02  0.1978E+03
     -4.577  0.2788E+02  0.2011E+03
     -4.459  0.3639E+02  0.2053E+03
     -4.341  0.3846E+02  0.2099E+03
     -4.223  0.4212E+02  0.2148E+03
     -4.106  0.3254E+02  0.2187E+03
     -3.988  0.3568E+02  0.2229E+03
     -3.870  0.3293E+02  0.2268E+03
     -3.752  0.3293E+02  0.2307E+03
     -3.634  0.4539E+02  0.2360E+03
     -3.516  0.3258E+02  0.2399E+03
     -3.399  0.2320E+02  0.2426E+03
     -3.281  0.1335E+02  0.2442E+03
     -3.163  0.1077E+02  0.2455E+03
     -3.045  0.6525E+01  0.2462E+03
     -2.927  0.9077E+01  0.2473E+03
     -2.809  0.5009E+01  0.2479E+03
     -2.692  0.7184E+00  0.2480E+03
     -2.574  0.7138E-01  0.2480E+03
     -2.456  0.0000E+00  0.2480E+03
     -2.338  0.0000E+00  0.2480E+03
     -2.220  0.0000E+00  0.2480E+03
     -2.102  0.0000E+00  0.2480E+03
     -1.984  0.0000E+00  0.2480E+03
     -1.867  0.0000E+00  0.2480E+03
     -1.749  0.0000E+00  0.2480E+03
     -1.631  0.0000E+00  0.2480E+03
     -1.513  0.0000E+00  0.2480E+03
     -1.395  0.0000E+00  0.2480E+03
     -1.277  0.0000E+00  0.2480E+03
     -1.160  0.0000E+00  0.2480E+03
     -1.042  0.0000E+00  0.2480E+03
     -0.924  0.0000E+00  0.2480E+03
     -0.806  0.0000E+00  0.2480E+03
     -0.688  0.0000E+00  0.2480E+03
     -0.570  0.0000E+00  0.2480E+03
     -0.453  0.0000E+00  0.2480E+03
     -0.335  0.0000E+00  0.2480E+03
     -0.217  0.0000E+00  0.2480E+03
     -0.099  0.0000E+00  0.2480E+03
      0.019  0.0000E+00  0.2480E+03
      0.137  0.9508E-04  0.2480E+03
      0.254  0.1145E-02  0.2480E+03
      0.372  0.1222E-01  0.2480E+03
      0.490  0.1159E+00  0.2480E+03
      0.608  0.6727E+00  0.2481E+03
      0.726  0.1822E+01  0.2483E+03
      0.844  0.3235E+01  0.2487E+03
      0.962  0.4175E+01  0.2492E+03
      1.079  0.3879E+01  0.2496E+03
      1.197  0.2622E+01  0.2499E+03
      1.315  0.1618E+01  0.2501E+03
      1.433  0.2120E+01  0.2504E+03
      1.551  0.3536E+01  0.2508E+03
      1.669  0.4933E+01  0.2514E+03
      1.786  0.4746E+01  0.2519E+03
      1.904  0.4518E+01  0.2525E+03
      2.022  0.5567E+01  0.2531E+03
      2.140  0.4820E+01  0.2537E+03
      2.258  0.4301E+01  0.2542E+03
      2.376  0.6169E+01  0.2549E+03
      2.493  0.6775E+01  0.2557E+03
      2.611  0.5453E+01  0.2564E+03
      2.729  0.6299E+01  0.2571E+03
      2.847  0.7729E+01  0.2580E+03
      2.965  0.8262E+01  0.2590E+03
      3.083  0.8428E+01  0.2600E+03
      3.200  0.9258E+01  0.2611E+03
      3.318  0.1057E+02  0.2623E+03
      3.436  0.1048E+02  0.2636E+03
      3.554  0.9750E+01  0.2647E+03
      3.672  0.1073E+02  0.2660E+03
      3.790  0.1201E+02  0.2674E+03
      3.908  0.1222E+02  0.2689E+03
      4.025  0.1244E+02  0.2703E+03
      4.143  0.1231E+02  0.2718E+03
      4.261  0.1255E+02  0.2733E+03
      4.379  0.1325E+02  0.2748E+03
      4.497  0.1456E+02  0.2765E+03
      4.615  0.1515E+02  0.2783E+03
      4.732  0.1525E+02  0.2801E+03
      4.850  0.1607E+02  0.2820E+03
      4.968  0.1732E+02  0.2841E+03
      5.086  0.1779E+02  0.2862E+03
      5.204  0.1840E+02  0.2883E+03
      5.322  0.1942E+02  0.2906E+03
      5.439  0.1974E+02  0.2930E+03
      5.557  0.2022E+02  0.2953E+03
      5.675  0.2124E+02  0.2978E+03
      5.793  0.2286E+02  0.3005E+03
      5.911  0.2300E+02  0.3033E+03
      6.029  0.2285E+02  0.3060E+03
      6.146  0.2368E+02  0.3087E+03
      6.264  0.2354E+02  0.3115E+03
      6.382  0.2426E+02  0.3144E+03
      6.500  0.2549E+02  0.3174E+03
      6.618  0.2514E+02  0.3204E+03
      6.736  0.2480E+02  0.3233E+03
      6.854  0.2436E+02  0.3262E+03
      6.971  0.2339E+02  0.3289E+03
      7.089  0.2244E+02  0.3316E+03
      7.207  0.2195E+02  0.3342E+03
      7.325  0.2124E+02  0.3367E+03
      7.443  0.1952E+02  0.3390E+03
      7.561  0.1624E+02  0.3409E+03
      7.678  0.1253E+02  0.3424E+03
      7.796  0.8586E+01  0.3434E+03
      7.914  0.3953E+01  0.3439E+03
      8.032  0.1016E+01  0.3440E+03
      8.150  0.1769E+00  0.3440E+03
      8.268  0.1924E-01  0.3440E+03
      8.385  0.1287E-02  0.3440E+03
      8.503  0.0000E+00  0.3440E+03
      8.621  0.0000E+00  0.3440E+03
      8.739  0.0000E+00  0.3440E+03
      8.857  0.0000E+00  0.3440E+03
      8.975  0.0000E+00  0.3440E+03
      9.093  0.0000E+00  0.3440E+03
      9.210  0.0000E+00  0.3440E+03
      9.328  0.0000E+00  0.3440E+03
      9.446  0.0000E+00  0.3440E+03
      9.564  0.0000E+00  0.3440E+03
      9.682  0.0000E+00  0.3440E+03
