  93  93   0   0
  0.1016658E+02  0.9814900E-09  0.9814900E-09  0.9814900E-09  0.5000000E-15
  1.000000000000000E-004
  CAR 
 ice                                     
      9.60443142    -25.15581357  301     -1.75046879      1.00000000
    -25.156  0.0000E+00  0.0000E+00
    -25.040  0.0000E+00  0.0000E+00
    -24.924  0.0000E+00  0.0000E+00
    -24.808  0.0000E+00  0.0000E+00
    -24.692  0.0000E+00  0.0000E+00
    -24.576  0.0000E+00  0.0000E+00
    -24.461  0.0000E+00  0.0000E+00
    -24.345  0.0000E+00  0.0000E+00
    -24.229  0.0000E+00  0.0000E+00
    -24.113  0.0000E+00  0.0000E+00
    -23.997  0.4110E-02  0.4762E-03
    -23.881  0.3942E-01  0.5044E-02
    -23.765  0.3915E+00  0.5040E-01
    -23.650  0.3395E+01  0.4437E+00
    -23.534  0.1450E+02  0.2124E+01
    -23.418  0.2122E+02  0.4582E+01
    -23.302  0.1085E+02  0.5839E+01
    -23.186  0.5401E+01  0.6465E+01
    -23.070  0.1580E+02  0.8302E+01
    -22.954  0.1268E+02  0.9773E+01
    -22.838  0.5827E+01  0.1045E+02
    -22.723  0.1692E+02  0.1241E+02
    -22.607  0.2379E+02  0.1517E+02
    -22.491  0.2277E+02  0.1781E+02
    -22.375  0.2177E+02  0.2033E+02
    -22.259  0.2476E+02  0.2320E+02
    -22.143  0.2038E+02  0.2557E+02
    -22.027  0.1815E+02  0.2767E+02
    -21.912  0.2869E+02  0.3100E+02
    -21.796  0.3362E+02  0.3490E+02
    -21.680  0.2362E+02  0.3764E+02
    -21.564  0.1553E+02  0.3945E+02
    -21.448  0.2041E+02  0.4181E+02
    -21.332  0.2873E+02  0.4515E+02
    -21.216  0.2988E+02  0.4861E+02
    -21.100  0.1888E+02  0.5080E+02
    -20.985  0.1146E+02  0.5213E+02
    -20.869  0.1166E+02  0.5349E+02
    -20.753  0.1365E+02  0.5507E+02
    -20.637  0.1427E+02  0.5673E+02
    -20.521  0.9004E+01  0.5777E+02
    -20.405  0.1884E+01  0.5799E+02
    -20.289  0.1284E+01  0.5814E+02
    -20.174  0.6342E+01  0.5888E+02
    -20.058  0.7760E+01  0.5978E+02
    -19.942  0.1786E+01  0.5998E+02
    -19.826  0.8459E+00  0.6008E+02
    -19.710  0.4613E+01  0.6062E+02
    -19.594  0.8808E+01  0.6164E+02
    -19.478  0.2745E+01  0.6196E+02
    -19.362  0.3292E+00  0.6200E+02
    -19.247  0.0000E+00  0.6200E+02
    -19.131  0.0000E+00  0.6200E+02
    -19.015  0.0000E+00  0.6200E+02
    -18.899  0.0000E+00  0.6200E+02
    -18.783  0.0000E+00  0.6200E+02
    -18.667  0.0000E+00  0.6200E+02
    -18.551  0.0000E+00  0.6200E+02
    -18.435  0.0000E+00  0.6200E+02
    -18.320  0.0000E+00  0.6200E+02
    -18.204  0.0000E+00  0.6200E+02
    -18.088  0.0000E+00  0.6200E+02
    -17.972  0.0000E+00  0.6200E+02
    -17.856  0.0000E+00  0.6200E+02
    -17.740  0.0000E+00  0.6200E+02
    -17.624  0.0000E+00  0.6200E+02
    -17.509  0.0000E+00  0.6200E+02
    -17.393  0.0000E+00  0.6200E+02
    -17.277  0.0000E+00  0.6200E+02
    -17.161  0.0000E+00  0.6200E+02
    -17.045  0.0000E+00  0.6200E+02
    -16.929  0.0000E+00  0.6200E+02
    -16.813  0.0000E+00  0.6200E+02
    -16.697  0.0000E+00  0.6200E+02
    -16.582  0.0000E+00  0.6200E+02
    -16.466  0.0000E+00  0.6200E+02
    -16.350  0.0000E+00  0.6200E+02
    -16.234  0.0000E+00  0.6200E+02
    -16.118  0.0000E+00  0.6200E+02
    -16.002  0.0000E+00  0.6200E+02
    -15.886  0.0000E+00  0.6200E+02
    -15.771  0.0000E+00  0.6200E+02
    -15.655  0.0000E+00  0.6200E+02
    -15.539  0.0000E+00  0.6200E+02
    -15.423  0.0000E+00  0.6200E+02
    -15.307  0.0000E+00  0.6200E+02
    -15.191  0.0000E+00  0.6200E+02
    -15.075  0.0000E+00  0.6200E+02
    -14.959  0.0000E+00  0.6200E+02
    -14.844  0.0000E+00  0.6200E+02
    -14.728  0.0000E+00  0.6200E+02
    -14.612  0.0000E+00  0.6200E+02
    -14.496  0.0000E+00  0.6200E+02
    -14.380  0.0000E+00  0.6200E+02
    -14.264  0.0000E+00  0.6200E+02
    -14.148  0.0000E+00  0.6200E+02
    -14.033  0.0000E+00  0.6200E+02
    -13.917  0.0000E+00  0.6200E+02
    -13.801  0.0000E+00  0.6200E+02
    -13.685  0.0000E+00  0.6200E+02
    -13.569  0.0000E+00  0.6200E+02
    -13.453  0.0000E+00  0.6200E+02
    -13.337  0.0000E+00  0.6200E+02
    -13.221  0.0000E+00  0.6200E+02
    -13.106  0.0000E+00  0.6200E+02
    -12.990  0.0000E+00  0.6200E+02
    -12.874  0.0000E+00  0.6200E+02
    -12.758  0.0000E+00  0.6200E+02
    -12.642  0.0000E+00  0.6200E+02
    -12.526  0.0000E+00  0.6200E+02
    -12.410  0.0000E+00  0.6200E+02
    -12.295  0.0000E+00  0.6200E+02
    -12.179  0.2243E-02  0.6200E+02
    -12.063  0.2050E-01  0.6200E+02
    -11.947  0.2115E+00  0.6203E+02
    -11.831  0.1989E+01  0.6226E+02
    -11.715  0.1174E+02  0.6362E+02
    -11.599  0.1959E+02  0.6589E+02
    -11.483  0.1345E+02  0.6745E+02
    -11.368  0.4422E+01  0.6796E+02
    -11.252  0.2424E+01  0.6825E+02
    -11.136  0.8952E+01  0.6929E+02
    -11.020  0.1215E+02  0.7070E+02
    -10.904  0.9059E+01  0.7175E+02
    -10.788  0.2419E+01  0.7203E+02
    -10.672  0.4011E+01  0.7249E+02
    -10.557  0.1626E+02  0.7438E+02
    -10.441  0.2370E+02  0.7713E+02
    -10.325  0.2109E+02  0.7957E+02
    -10.209  0.2505E+02  0.8247E+02
    -10.093  0.2148E+02  0.8497E+02
     -9.977  0.1870E+02  0.8714E+02
     -9.861  0.3302E+02  0.9097E+02
     -9.745  0.3001E+02  0.9445E+02
     -9.630  0.2315E+02  0.9713E+02
     -9.514  0.2737E+02  0.1003E+03
     -9.398  0.2244E+02  0.1029E+03
     -9.282  0.1045E+02  0.1041E+03
     -9.166  0.1367E+02  0.1057E+03
     -9.050  0.1719E+02  0.1077E+03
     -8.934  0.1403E+02  0.1093E+03
     -8.818  0.2478E+02  0.1122E+03
     -8.703  0.2567E+02  0.1152E+03
     -8.587  0.2725E+02  0.1183E+03
     -8.471  0.1569E+02  0.1202E+03
     -8.355  0.1119E+02  0.1215E+03
     -8.239  0.5996E+01  0.1222E+03
     -8.123  0.9177E+01  0.1232E+03
     -8.007  0.1385E+02  0.1248E+03
     -7.892  0.2237E+02  0.1274E+03
     -7.776  0.2535E+02  0.1304E+03
     -7.660  0.1922E+02  0.1326E+03
     -7.544  0.1588E+02  0.1344E+03
     -7.428  0.1556E+02  0.1363E+03
     -7.312  0.1753E+02  0.1383E+03
     -7.196  0.2349E+02  0.1410E+03
     -7.080  0.2426E+02  0.1438E+03
     -6.965  0.2373E+02  0.1466E+03
     -6.849  0.2980E+02  0.1500E+03
     -6.733  0.2909E+02  0.1534E+03
     -6.617  0.2038E+02  0.1558E+03
     -6.501  0.1398E+02  0.1574E+03
     -6.385  0.1039E+02  0.1586E+03
     -6.269  0.1859E+02  0.1608E+03
     -6.154  0.2215E+02  0.1633E+03
     -6.038  0.2196E+02  0.1659E+03
     -5.922  0.1998E+02  0.1682E+03
     -5.806  0.2093E+02  0.1706E+03
     -5.690  0.2405E+02  0.1734E+03
     -5.574  0.2744E+02  0.1766E+03
     -5.458  0.2413E+02  0.1794E+03
     -5.342  0.2057E+02  0.1818E+03
     -5.227  0.2876E+02  0.1851E+03
     -5.111  0.3200E+02  0.1888E+03
     -4.995  0.2484E+02  0.1917E+03
     -4.879  0.1716E+02  0.1937E+03
     -4.763  0.1877E+02  0.1959E+03
     -4.647  0.3354E+02  0.1998E+03
     -4.531  0.3767E+02  0.2041E+03
     -4.416  0.3979E+02  0.2088E+03
     -4.300  0.4055E+02  0.2135E+03
     -4.184  0.4338E+02  0.2185E+03
     -4.068  0.4726E+02  0.2240E+03
     -3.952  0.3922E+02  0.2285E+03
     -3.836  0.2682E+02  0.2316E+03
     -3.720  0.2554E+02  0.2346E+03
     -3.604  0.3191E+02  0.2383E+03
     -3.489  0.2209E+02  0.2409E+03
     -3.373  0.1346E+02  0.2424E+03
     -3.257  0.1102E+02  0.2437E+03
     -3.141  0.9074E+01  0.2448E+03
     -3.025  0.1681E+02  0.2467E+03
     -2.909  0.9348E+01  0.2478E+03
     -2.793  0.1508E+01  0.2480E+03
     -2.678  0.1240E+00  0.2480E+03
     -2.562  0.0000E+00  0.2480E+03
     -2.446  0.0000E+00  0.2480E+03
     -2.330  0.0000E+00  0.2480E+03
     -2.214  0.0000E+00  0.2480E+03
     -2.098  0.0000E+00  0.2480E+03
     -1.982  0.0000E+00  0.2480E+03
     -1.866  0.0000E+00  0.2480E+03
     -1.751  0.0000E+00  0.2480E+03
     -1.635  0.0000E+00  0.2480E+03
     -1.519  0.0000E+00  0.2480E+03
     -1.403  0.0000E+00  0.2480E+03
     -1.287  0.0000E+00  0.2480E+03
     -1.171  0.0000E+00  0.2480E+03
     -1.055  0.0000E+00  0.2480E+03
     -0.940  0.0000E+00  0.2480E+03
     -0.824  0.0000E+00  0.2480E+03
     -0.708  0.0000E+00  0.2480E+03
     -0.592  0.0000E+00  0.2480E+03
     -0.476  0.0000E+00  0.2480E+03
     -0.360  0.0000E+00  0.2480E+03
     -0.244  0.0000E+00  0.2480E+03
     -0.128  0.0000E+00  0.2480E+03
     -0.013  0.0000E+00  0.2480E+03
      0.103  0.0000E+00  0.2480E+03
      0.219  0.6124E-05  0.2480E+03
      0.335  0.2111E-03  0.2480E+03
      0.451  0.2187E-02  0.2480E+03
      0.567  0.2183E-01  0.2480E+03
      0.683  0.1800E+00  0.2480E+03
      0.799  0.7743E+00  0.2481E+03
      0.914  0.1636E+01  0.2483E+03
      1.030  0.2582E+01  0.2486E+03
      1.146  0.3454E+01  0.2490E+03
      1.262  0.3560E+01  0.2494E+03
      1.378  0.2961E+01  0.2498E+03
      1.494  0.2260E+01  0.2500E+03
      1.610  0.2395E+01  0.2503E+03
      1.725  0.3817E+01  0.2507E+03
      1.841  0.4972E+01  0.2513E+03
      1.957  0.4468E+01  0.2518E+03
      2.073  0.4691E+01  0.2524E+03
      2.189  0.5897E+01  0.2531E+03
      2.305  0.6035E+01  0.2538E+03
      2.421  0.6230E+01  0.2545E+03
      2.537  0.6706E+01  0.2553E+03
      2.652  0.7551E+01  0.2561E+03
      2.768  0.7825E+01  0.2570E+03
      2.884  0.8186E+01  0.2580E+03
      3.000  0.7649E+01  0.2589E+03
      3.116  0.8583E+01  0.2599E+03
      3.232  0.9437E+01  0.2610E+03
      3.348  0.9768E+01  0.2621E+03
      3.463  0.9679E+01  0.2632E+03
      3.579  0.1008E+02  0.2644E+03
      3.695  0.1100E+02  0.2657E+03
      3.811  0.1121E+02  0.2670E+03
      3.927  0.1213E+02  0.2684E+03
      4.043  0.1351E+02  0.2700E+03
      4.159  0.1449E+02  0.2716E+03
      4.275  0.1452E+02  0.2733E+03
      4.390  0.1369E+02  0.2749E+03
      4.506  0.1390E+02  0.2765E+03
      4.622  0.1478E+02  0.2782E+03
      4.738  0.1485E+02  0.2800E+03
      4.854  0.1511E+02  0.2817E+03
      4.970  0.1578E+02  0.2835E+03
      5.086  0.1720E+02  0.2855E+03
      5.201  0.1974E+02  0.2878E+03
      5.317  0.2049E+02  0.2902E+03
      5.433  0.2032E+02  0.2926E+03
      5.549  0.2064E+02  0.2950E+03
      5.665  0.2273E+02  0.2976E+03
      5.781  0.2298E+02  0.3003E+03
      5.897  0.2270E+02  0.3029E+03
      6.013  0.2317E+02  0.3056E+03
      6.128  0.2500E+02  0.3085E+03
      6.244  0.2663E+02  0.3116E+03
      6.360  0.2753E+02  0.3148E+03
      6.476  0.2701E+02  0.3179E+03
      6.592  0.2647E+02  0.3210E+03
      6.708  0.2503E+02  0.3239E+03
      6.824  0.2479E+02  0.3267E+03
      6.939  0.2479E+02  0.3296E+03
      7.055  0.2413E+02  0.3324E+03
      7.171  0.2158E+02  0.3349E+03
      7.287  0.1928E+02  0.3372E+03
      7.403  0.1803E+02  0.3393E+03
      7.519  0.1577E+02  0.3411E+03
      7.635  0.1264E+02  0.3426E+03
      7.751  0.8238E+01  0.3435E+03
      7.866  0.3295E+01  0.3439E+03
      7.982  0.7316E+00  0.3440E+03
      8.098  0.1071E+00  0.3440E+03
      8.214  0.1102E-01  0.3440E+03
      8.330  0.6848E-03  0.3440E+03
      8.446  0.0000E+00  0.3440E+03
      8.562  0.0000E+00  0.3440E+03
      8.677  0.0000E+00  0.3440E+03
      8.793  0.0000E+00  0.3440E+03
      8.909  0.0000E+00  0.3440E+03
      9.025  0.0000E+00  0.3440E+03
      9.141  0.0000E+00  0.3440E+03
      9.257  0.0000E+00  0.3440E+03
      9.373  0.0000E+00  0.3440E+03
      9.489  0.0000E+00  0.3440E+03
      9.604  0.0000E+00  0.3440E+03
