 vasp.5.4.4.18Apr17-6-g9f103f2a35 (build Dec 06 2019 17:20:26) complex          
  
 executed on             LinuxIFC date 2025.07.03  17:37:51
 running on   40 total cores
 distrk:  each k-point on   40 cores,    1 groups
 distr:  one band on NCORES_PER_BAND=  20 cores,    2 groups


--------------------------------------------------------------------------------------------------------


 INCAR:
 POTCAR:    PAW_PBE O 08Apr2002                   
 POTCAR:    PAW_PBE H 15Jun2001                   

 ----------------------------------------------------------------------------- 
|                                                                             |
|           W    W    AA    RRRRR   N    N  II  N    N   GGGG   !!!           |
|           W    W   A  A   R    R  NN   N  II  NN   N  G    G  !!!           |
|           W    W  A    A  R    R  N N  N  II  N N  N  G       !!!           |
|           W WW W  AAAAAA  RRRRR   N  N N  II  N  N N  G  GGG   !            |
|           WW  WW  A    A  R   R   N   NN  II  N   NN  G    G                |
|           W    W  A    A  R    R  N    N  II  N    N   GGGG   !!!           |
|                                                                             |
|      For optimal performance we recommend to set                            |
|        NCORE= 4 - approx SQRT( number of cores)                             |
|      NCORE specifies how many cores store one orbital (NPAR=cpu/NCORE).     |
|      This setting can  greatly improve the performance of VASP for DFT.     |
|      The default,   NCORE=1            might be grossly inefficient         |
|      on modern multi-core architectures or massively parallel machines.     |
|      Do your own testing !!!!                                               |
|      Unfortunately you need to use the default for GW and RPA calculations. |
|      (for HF NCORE is supported but not extensively tested yet)             |
|                                                                             |
 ----------------------------------------------------------------------------- 

 POTCAR:    PAW_PBE O 08Apr2002                   
  local pseudopotential read in
  partial core-charges read in
  partial kinetic energy density read in
  kinetic energy density of atom read in
  atomic valenz-charges read in
  non local Contribution for L=           0  read in
    real space projection operators read in
  non local Contribution for L=           0  read in
    real space projection operators read in
  non local Contribution for L=           1  read in
    real space projection operators read in
  non local Contribution for L=           1  read in
    real space projection operators read in
    PAW grid and wavefunctions read in
 
   number of l-projection  operators is LMAX  =           4
   number of lm-projection operators is LMMAX =           8
 
 POTCAR:    PAW_PBE H 15Jun2001                   
  local pseudopotential read in
  atomic valenz-charges read in
  non local Contribution for L=           0  read in
    real space projection operators read in
  non local Contribution for L=           0  read in
    real space projection operators read in
  non local Contribution for L=           1  read in
    real space projection operators read in
    PAW grid and wavefunctions read in
 
   number of l-projection  operators is LMAX  =           3
   number of lm-projection operators is LMMAX =           5
 
 Optimization of the real space projectors (new method)

 maximal supplied QI-value         = 24.76
 optimisation between [QCUT,QGAM] = [ 10.15, 20.30] = [ 28.85,115.39] Ry 
 Optimized for a Real-space Cutoff    1.38 Angstroem

   l    n(q)    QCUT    max X(q) W(low)/X(q) W(high)/X(q)  e(spline) 
   0      8    10.150    20.381    0.22E-03    0.32E-03    0.29E-06
   0      8    10.150    15.268    0.23E-03    0.35E-03    0.30E-06
   1      8    10.150     5.964    0.46E-03    0.53E-03    0.21E-06
   1      8    10.150     5.382    0.38E-03    0.45E-03    0.19E-06
 Optimization of the real space projectors (new method)

 maximal supplied QI-value         = 34.20
 optimisation between [QCUT,QGAM] = [  9.92, 20.18] = [ 27.55,114.04] Ry 
 Optimized for a Real-space Cutoff    1.26 Angstroem

   l    n(q)    QCUT    max X(q) W(low)/X(q) W(high)/X(q)  e(spline) 
   0      8     9.919    19.460    0.50E-03    0.23E-03    0.29E-06
   0      8     9.919    12.209    0.48E-03    0.23E-03    0.28E-06
   1      7     9.919     4.655    0.17E-03    0.75E-03    0.30E-06
  PAW_PBE O 08Apr2002                   :
 energy of atom  1       EATOM= -432.3788
 kinetic energy error for atom=    0.1156 (will be added to EATOM!!)
  PAW_PBE H 15Jun2001                   :
 energy of atom  2       EATOM=  -12.4884
 kinetic energy error for atom=    0.0098 (will be added to EATOM!!)
 
 
 POSCAR: # 4                                     
  positions in cartesian coordinates
  No initial velocities read in
 exchange correlation table for  LEXCH =        8
   RHO(1)=    0.500       N(1)  =     2000
   RHO(2)=  100.500       N(2)  =     4000
 


--------------------------------------------------------------------------------------------------------


 ion  position               nearest neighbor table
   1  0.580  0.385  0.130-  32 0.96  33 1.10
   2  0.127  0.811  0.608-  34 0.98  35 1.04
   3  0.086  0.563  0.752-  37 0.96  36 1.02  88 1.41
   4  0.070  0.383  0.407-  38 1.03  39 1.05
   5  0.749  0.019  0.699-  41 0.96  40 1.02
   6  0.720  0.393  0.757-  42 0.95  43 1.07
   7  0.575  0.191  0.791-  45 0.90  44 0.99
   8  0.014  0.214  0.184-  46 0.91  47 1.08
   9  0.280  0.858  0.978-  49 1.02  48 1.11
  10  0.840  0.393  0.022-  50 0.98  51 1.02
  11  0.272  0.213  0.706-  52 0.92  53 0.97
  12  0.963  0.331  0.671-  54 0.95  55 1.03
  13  0.727  0.816  0.871-  56 0.99  57 1.05
  14  0.677  0.044  0.434-  58 0.99  59 1.12
  15  0.346  0.610  0.850-  61 1.07  60 1.12
  16  0.232  0.137  0.951-  63 0.92  62 1.07
  17  0.466  0.141  0.092-  64 0.96  65 0.98
  18  0.683  0.654  0.419-  67 0.94  66 1.15
  19  0.844  0.949  0.237-  69 1.12  68 1.13
  20  0.342  0.363  0.440-  70 0.92  71 1.07
  21  0.413  0.119  0.379-  73 1.04  72 1.04
  22  0.004  0.046  0.631-  75 0.97  74 1.02
  23  0.145  0.036  0.373-  76 1.11  77 1.16
  24  0.374  0.834  0.500-  79 1.02  78 1.04
  25  0.354  0.544  0.113-  80 0.95  81 1.07
  26  0.466  0.735  0.262-  82 0.94  83 0.96
  27  0.555  0.652  0.712-  85 1.01  84 1.02
  28  0.637  0.357  0.399-  87 0.92  86 1.02
  29  0.935  0.654  0.952-  89 1.07  88 1.21
  30  0.602  0.911  0.098-  91 0.91  90 1.07
  31  0.972  0.665  0.399-  93 0.97  92 1.01
  32  0.534  0.470  0.122-   1 0.96
  33  0.678  0.407  0.082-   1 1.10
  34  0.068  0.797  0.529-   2 0.98
  35  0.113  0.725  0.669-   2 1.04
  36  0.049  0.466  0.749-   3 1.02
  37  0.170  0.574  0.801-   3 0.96
  38  0.172  0.407  0.407-   4 1.03
  39  0.029  0.353  0.501-   4 1.05
  40  0.684  0.015  0.619-   5 1.02
  41  0.720  0.939  0.748-   5 0.96
  42  0.677  0.461  0.704-   6 0.95
  43  0.650  0.324  0.806-   6 1.07
  44  0.514  0.167  0.867-   7 0.99
  45  0.626  0.115  0.785-   7 0.90
  46  0.938  0.257  0.150-   8 0.91
  47  0.046  0.258  0.279-   8 1.08
  48  0.249  0.967  0.969-   9 1.11
  49  0.231  0.814  0.058-   9 1.02
  50  0.804  0.400  0.929-  10 0.98
  51  0.861  0.494  0.023-  10 1.02
  52  0.181  0.196  0.691-  11 0.92
  53  0.295  0.274  0.632-  11 0.97
  54  0.986  0.238  0.656-  12 0.95
  55  0.862  0.310  0.688-  12 1.03
  56  0.685  0.845  0.959-  13 0.99
  57  0.793  0.745  0.916-  13 1.05
  58  0.691  0.142  0.414-  14 0.99
  59  0.564  0.050  0.416-  14 1.12
  60  0.358  0.570  0.956-  15 1.12
  61  0.304  0.703  0.888-  15 1.07
  62  0.236  0.193  0.857-  16 1.07
  63  0.166  0.164  0.011-  16 0.92
  64  0.375  0.134  0.058-  17 0.96
  65  0.476  0.237  0.116-  17 0.98
  66  0.637  0.630  0.524-  18 1.15
  67  0.605  0.673  0.367-  18 0.94
  68  0.904  0.033  0.185-  19 1.13
  69  0.757  0.982  0.304-  19 1.12
  70  0.409  0.422  0.468-  20 0.92
  71  0.390  0.267  0.421-  20 1.07
  72  0.310  0.098  0.364-  21 1.04
  73  0.429  0.105  0.275-  21 1.04
  74  0.903  0.022  0.643-  22 1.02
  75  0.062  0.965  0.630-  22 0.97
  76  0.068  0.036  0.291-  23 1.11
  77  0.075  0.049  0.467-  23 1.16
  78  0.292  0.798  0.557-  24 1.04
  79  0.445  0.815  0.573-  24 1.02
  80  0.394  0.618  0.158-  25 0.95
  81  0.292  0.473  0.168-  25 1.07
  82  0.431  0.755  0.349-  26 0.94
  83  0.487  0.807  0.199-  26 0.96
  84  0.598  0.691  0.798-  27 1.02
  85  0.463  0.640  0.756-  27 1.01
  86  0.618  0.377  0.299-  28 1.02
  87  0.670  0.444  0.397-  28 0.92
  88  0.007  0.619  0.859-  29 1.21   3 1.41
  89  0.990  0.708  0.028-  29 1.07
  90  0.557  0.010  0.089-  30 1.07
  91  0.690  0.918  0.125-  30 0.91
  92  0.870  0.653  0.408-  31 1.01
  93  0.005  0.572  0.407-  31 0.97
 
  LATTYP: Found a simple cubic cell.
 ALAT       =     9.8149000000
  
  Lattice vectors:
  
 A1 = (   9.8149000000,   0.0000000000,   0.0000000000)
 A2 = (   0.0000000000,   9.8149000000,   0.0000000000)
 A3 = (   0.0000000000,   0.0000000000,   9.8149000000)


Analysis of symmetry for initial positions (statically):
=====================================================================
 Subroutine PRICEL returns:
 Original cell was already a primitive cell.
 

 Routine SETGRP: Setting up the symmetry group for a 
 simple cubic supercell.


 Subroutine GETGRP returns: Found  1 space group operations
 (whereof  1 operations were pure point group operations)
 out of a pool of 48 trial point group operations.


The static configuration has the point symmetry C_1 .


Analysis of symmetry for dynamics (positions and initial velocities):
=====================================================================
 Subroutine PRICEL returns:
 Original cell was already a primitive cell.
 

 Routine SETGRP: Setting up the symmetry group for a 
 simple cubic supercell.


 Subroutine GETGRP returns: Found  1 space group operations
 (whereof  1 operations were pure point group operations)
 out of a pool of 48 trial point group operations.


The dynamic configuration has the point symmetry C_1 .


 Subroutine INISYM returns: Found  1 space group operations
 (whereof  1 operations are pure point group operations),
 and found     1 'primitive' translations

 
 
 KPOINTS: automatic mesh                          

Automatic generation of k-mesh.
Space group operators:
 irot       det(A)        alpha          n_x          n_y          n_z        tau_x        tau_y        tau_z
    1     1.000000     0.000000     1.000000     0.000000     0.000000     0.000000     0.000000     0.000000
 
 Subroutine IBZKPT returns following result:
 ===========================================
 
 Found    504 irreducible k-points:
 
 Following reciprocal coordinates:
            Coordinates               Weight
  0.000000  0.000000  0.000000      1.000000
  0.100000  0.000000  0.000000      2.000000
  0.200000  0.000000  0.000000      2.000000
  0.300000  0.000000  0.000000      2.000000
  0.400000  0.000000  0.000000      2.000000
  0.500000  0.000000  0.000000      1.000000
  0.000000  0.100000  0.000000      2.000000
  0.100000  0.100000  0.000000      2.000000
  0.200000  0.100000  0.000000      2.000000
  0.300000  0.100000  0.000000      2.000000
  0.400000  0.100000  0.000000      2.000000
  0.500000  0.100000  0.000000      2.000000
 -0.400000  0.100000  0.000000      2.000000
 -0.300000  0.100000  0.000000      2.000000
 -0.200000  0.100000  0.000000      2.000000
 -0.100000  0.100000  0.000000      2.000000
  0.000000  0.200000  0.000000      2.000000
  0.100000  0.200000  0.000000      2.000000
  0.200000  0.200000  0.000000      2.000000
  0.300000  0.200000  0.000000      2.000000
  0.400000  0.200000  0.000000      2.000000
  0.500000  0.200000  0.000000      2.000000
 -0.400000  0.200000  0.000000      2.000000
 -0.300000  0.200000  0.000000      2.000000
 -0.200000  0.200000  0.000000      2.000000
 -0.100000  0.200000  0.000000      2.000000
  0.000000  0.300000  0.000000      2.000000
  0.100000  0.300000  0.000000      2.000000
  0.200000  0.300000  0.000000      2.000000
  0.300000  0.300000  0.000000      2.000000
  0.400000  0.300000  0.000000      2.000000
  0.500000  0.300000  0.000000      2.000000
 -0.400000  0.300000  0.000000      2.000000
 -0.300000  0.300000  0.000000      2.000000
 -0.200000  0.300000  0.000000      2.000000
 -0.100000  0.300000  0.000000      2.000000
  0.000000  0.400000  0.000000      2.000000
  0.100000  0.400000  0.000000      2.000000
  0.200000  0.400000  0.000000      2.000000
  0.300000  0.400000  0.000000      2.000000
  0.400000  0.400000  0.000000      2.000000
  0.500000  0.400000  0.000000      2.000000
 -0.400000  0.400000  0.000000      2.000000
 -0.300000  0.400000  0.000000      2.000000
 -0.200000  0.400000  0.000000      2.000000
 -0.100000  0.400000  0.000000      2.000000
  0.000000  0.500000  0.000000      1.000000
  0.100000  0.500000  0.000000      2.000000
  0.200000  0.500000  0.000000      2.000000
  0.300000  0.500000  0.000000      2.000000
  0.400000  0.500000  0.000000      2.000000
  0.500000  0.500000  0.000000      1.000000
  0.000000  0.000000  0.100000      2.000000
  0.100000  0.000000  0.100000      2.000000
  0.200000  0.000000  0.100000      2.000000
  0.300000  0.000000  0.100000      2.000000
  0.400000  0.000000  0.100000      2.000000
  0.500000  0.000000  0.100000      2.000000
 -0.400000  0.000000  0.100000      2.000000
 -0.300000  0.000000  0.100000      2.000000
 -0.200000  0.000000  0.100000      2.000000
 -0.100000  0.000000  0.100000      2.000000
  0.000000  0.100000  0.100000      2.000000
  0.100000  0.100000  0.100000      2.000000
  0.200000  0.100000  0.100000      2.000000
  0.300000  0.100000  0.100000      2.000000
  0.400000  0.100000  0.100000      2.000000
  0.500000  0.100000  0.100000      2.000000
 -0.400000  0.100000  0.100000      2.000000
 -0.300000  0.100000  0.100000      2.000000
 -0.200000  0.100000  0.100000      2.000000
 -0.100000  0.100000  0.100000      2.000000
  0.000000  0.200000  0.100000      2.000000
  0.100000  0.200000  0.100000      2.000000
  0.200000  0.200000  0.100000      2.000000
  0.300000  0.200000  0.100000      2.000000
  0.400000  0.200000  0.100000      2.000000
  0.500000  0.200000  0.100000      2.000000
 -0.400000  0.200000  0.100000      2.000000
 -0.300000  0.200000  0.100000      2.000000
 -0.200000  0.200000  0.100000      2.000000
 -0.100000  0.200000  0.100000      2.000000
  0.000000  0.300000  0.100000      2.000000
  0.100000  0.300000  0.100000      2.000000
  0.200000  0.300000  0.100000      2.000000
  0.300000  0.300000  0.100000      2.000000
  0.400000  0.300000  0.100000      2.000000
  0.500000  0.300000  0.100000      2.000000
 -0.400000  0.300000  0.100000      2.000000
 -0.300000  0.300000  0.100000      2.000000
 -0.200000  0.300000  0.100000      2.000000
 -0.100000  0.300000  0.100000      2.000000
  0.000000  0.400000  0.100000      2.000000
  0.100000  0.400000  0.100000      2.000000
  0.200000  0.400000  0.100000      2.000000
  0.300000  0.400000  0.100000      2.000000
  0.400000  0.400000  0.100000      2.000000
  0.500000  0.400000  0.100000      2.000000
 -0.400000  0.400000  0.100000      2.000000
 -0.300000  0.400000  0.100000      2.000000
 -0.200000  0.400000  0.100000      2.000000
 -0.100000  0.400000  0.100000      2.000000
  0.000000  0.500000  0.100000      2.000000
  0.100000  0.500000  0.100000      2.000000
  0.200000  0.500000  0.100000      2.000000
  0.300000  0.500000  0.100000      2.000000
  0.400000  0.500000  0.100000      2.000000
  0.500000  0.500000  0.100000      2.000000
 -0.400000  0.500000  0.100000      2.000000
 -0.300000  0.500000  0.100000      2.000000
 -0.200000  0.500000  0.100000      2.000000
 -0.100000  0.500000  0.100000      2.000000
  0.000000 -0.400000  0.100000      2.000000
  0.100000 -0.400000  0.100000      2.000000
  0.200000 -0.400000  0.100000      2.000000
  0.300000 -0.400000  0.100000      2.000000
  0.400000 -0.400000  0.100000      2.000000
  0.500000 -0.400000  0.100000      2.000000
 -0.400000 -0.400000  0.100000      2.000000
 -0.300000 -0.400000  0.100000      2.000000
 -0.200000 -0.400000  0.100000      2.000000
 -0.100000 -0.400000  0.100000      2.000000
  0.000000 -0.300000  0.100000      2.000000
  0.100000 -0.300000  0.100000      2.000000
  0.200000 -0.300000  0.100000      2.000000
  0.300000 -0.300000  0.100000      2.000000
  0.400000 -0.300000  0.100000      2.000000
  0.500000 -0.300000  0.100000      2.000000
 -0.400000 -0.300000  0.100000      2.000000
 -0.300000 -0.300000  0.100000      2.000000
 -0.200000 -0.300000  0.100000      2.000000
 -0.100000 -0.300000  0.100000      2.000000
  0.000000 -0.200000  0.100000      2.000000
  0.100000 -0.200000  0.100000      2.000000
  0.200000 -0.200000  0.100000      2.000000
  0.300000 -0.200000  0.100000      2.000000
  0.400000 -0.200000  0.100000      2.000000
  0.500000 -0.200000  0.100000      2.000000
 -0.400000 -0.200000  0.100000      2.000000
 -0.300000 -0.200000  0.100000      2.000000
 -0.200000 -0.200000  0.100000      2.000000
 -0.100000 -0.200000  0.100000      2.000000
  0.000000 -0.100000  0.100000      2.000000
  0.100000 -0.100000  0.100000      2.000000
  0.200000 -0.100000  0.100000      2.000000
  0.300000 -0.100000  0.100000      2.000000
  0.400000 -0.100000  0.100000      2.000000
  0.500000 -0.100000  0.100000      2.000000
 -0.400000 -0.100000  0.100000      2.000000
 -0.300000 -0.100000  0.100000      2.000000
 -0.200000 -0.100000  0.100000      2.000000
 -0.100000 -0.100000  0.100000      2.000000
  0.000000  0.000000  0.200000      2.000000
  0.100000  0.000000  0.200000      2.000000
  0.200000  0.000000  0.200000      2.000000
  0.300000  0.000000  0.200000      2.000000
  0.400000  0.000000  0.200000      2.000000
  0.500000  0.000000  0.200000      2.000000
 -0.400000  0.000000  0.200000      2.000000
 -0.300000  0.000000  0.200000      2.000000
 -0.200000  0.000000  0.200000      2.000000
 -0.100000  0.000000  0.200000      2.000000
  0.000000  0.100000  0.200000      2.000000
  0.100000  0.100000  0.200000      2.000000
  0.200000  0.100000  0.200000      2.000000
  0.300000  0.100000  0.200000      2.000000
  0.400000  0.100000  0.200000      2.000000
  0.500000  0.100000  0.200000      2.000000
 -0.400000  0.100000  0.200000      2.000000
 -0.300000  0.100000  0.200000      2.000000
 -0.200000  0.100000  0.200000      2.000000
 -0.100000  0.100000  0.200000      2.000000
  0.000000  0.200000  0.200000      2.000000
  0.100000  0.200000  0.200000      2.000000
  0.200000  0.200000  0.200000      2.000000
  0.300000  0.200000  0.200000      2.000000
  0.400000  0.200000  0.200000      2.000000
  0.500000  0.200000  0.200000      2.000000
 -0.400000  0.200000  0.200000      2.000000
 -0.300000  0.200000  0.200000      2.000000
 -0.200000  0.200000  0.200000      2.000000
 -0.100000  0.200000  0.200000      2.000000
  0.000000  0.300000  0.200000      2.000000
  0.100000  0.300000  0.200000      2.000000
  0.200000  0.300000  0.200000      2.000000
  0.300000  0.300000  0.200000      2.000000
  0.400000  0.300000  0.200000      2.000000
  0.500000  0.300000  0.200000      2.000000
 -0.400000  0.300000  0.200000      2.000000
 -0.300000  0.300000  0.200000      2.000000
 -0.200000  0.300000  0.200000      2.000000
 -0.100000  0.300000  0.200000      2.000000
  0.000000  0.400000  0.200000      2.000000
  0.100000  0.400000  0.200000      2.000000
  0.200000  0.400000  0.200000      2.000000
  0.300000  0.400000  0.200000      2.000000
  0.400000  0.400000  0.200000      2.000000
  0.500000  0.400000  0.200000      2.000000
 -0.400000  0.400000  0.200000      2.000000
 -0.300000  0.400000  0.200000      2.000000
 -0.200000  0.400000  0.200000      2.000000
 -0.100000  0.400000  0.200000      2.000000
  0.000000  0.500000  0.200000      2.000000
  0.100000  0.500000  0.200000      2.000000
  0.200000  0.500000  0.200000      2.000000
  0.300000  0.500000  0.200000      2.000000
  0.400000  0.500000  0.200000      2.000000
  0.500000  0.500000  0.200000      2.000000
 -0.400000  0.500000  0.200000      2.000000
 -0.300000  0.500000  0.200000      2.000000
 -0.200000  0.500000  0.200000      2.000000
 -0.100000  0.500000  0.200000      2.000000
  0.000000 -0.400000  0.200000      2.000000
  0.100000 -0.400000  0.200000      2.000000
  0.200000 -0.400000  0.200000      2.000000
  0.300000 -0.400000  0.200000      2.000000
  0.400000 -0.400000  0.200000      2.000000
  0.500000 -0.400000  0.200000      2.000000
 -0.400000 -0.400000  0.200000      2.000000
 -0.300000 -0.400000  0.200000      2.000000
 -0.200000 -0.400000  0.200000      2.000000
 -0.100000 -0.400000  0.200000      2.000000
  0.000000 -0.300000  0.200000      2.000000
  0.100000 -0.300000  0.200000      2.000000
  0.200000 -0.300000  0.200000      2.000000
  0.300000 -0.300000  0.200000      2.000000
  0.400000 -0.300000  0.200000      2.000000
  0.500000 -0.300000  0.200000      2.000000
 -0.400000 -0.300000  0.200000      2.000000
 -0.300000 -0.300000  0.200000      2.000000
 -0.200000 -0.300000  0.200000      2.000000
 -0.100000 -0.300000  0.200000      2.000000
  0.000000 -0.200000  0.200000      2.000000
  0.100000 -0.200000  0.200000      2.000000
  0.200000 -0.200000  0.200000      2.000000
  0.300000 -0.200000  0.200000      2.000000
  0.400000 -0.200000  0.200000      2.000000
  0.500000 -0.200000  0.200000      2.000000
 -0.400000 -0.200000  0.200000      2.000000
 -0.300000 -0.200000  0.200000      2.000000
 -0.200000 -0.200000  0.200000      2.000000
 -0.100000 -0.200000  0.200000      2.000000
  0.000000 -0.100000  0.200000      2.000000
  0.100000 -0.100000  0.200000      2.000000
  0.200000 -0.100000  0.200000      2.000000
  0.300000 -0.100000  0.200000      2.000000
  0.400000 -0.100000  0.200000      2.000000
  0.500000 -0.100000  0.200000      2.000000
 -0.400000 -0.100000  0.200000      2.000000
 -0.300000 -0.100000  0.200000      2.000000
 -0.200000 -0.100000  0.200000      2.000000
 -0.100000 -0.100000  0.200000      2.000000
  0.000000  0.000000  0.300000      2.000000
  0.100000  0.000000  0.300000      2.000000
  0.200000  0.000000  0.300000      2.000000
  0.300000  0.000000  0.300000      2.000000
  0.400000  0.000000  0.300000      2.000000
  0.500000  0.000000  0.300000      2.000000
 -0.400000  0.000000  0.300000      2.000000
 -0.300000  0.000000  0.300000      2.000000
 -0.200000  0.000000  0.300000      2.000000
 -0.100000  0.000000  0.300000      2.000000
  0.000000  0.100000  0.300000      2.000000
  0.100000  0.100000  0.300000      2.000000
  0.200000  0.100000  0.300000      2.000000
  0.300000  0.100000  0.300000      2.000000
  0.400000  0.100000  0.300000      2.000000
  0.500000  0.100000  0.300000      2.000000
 -0.400000  0.100000  0.300000      2.000000
 -0.300000  0.100000  0.300000      2.000000
 -0.200000  0.100000  0.300000      2.000000
 -0.100000  0.100000  0.300000      2.000000
  0.000000  0.200000  0.300000      2.000000
  0.100000  0.200000  0.300000      2.000000
  0.200000  0.200000  0.300000      2.000000
  0.300000  0.200000  0.300000      2.000000
  0.400000  0.200000  0.300000      2.000000
  0.500000  0.200000  0.300000      2.000000
 -0.400000  0.200000  0.300000      2.000000
 -0.300000  0.200000  0.300000      2.000000
 -0.200000  0.200000  0.300000      2.000000
 -0.100000  0.200000  0.300000      2.000000
  0.000000  0.300000  0.300000      2.000000
  0.100000  0.300000  0.300000      2.000000
  0.200000  0.300000  0.300000      2.000000
  0.300000  0.300000  0.300000      2.000000
  0.400000  0.300000  0.300000      2.000000
  0.500000  0.300000  0.300000      2.000000
 -0.400000  0.300000  0.300000      2.000000
 -0.300000  0.300000  0.300000      2.000000
 -0.200000  0.300000  0.300000      2.000000
 -0.100000  0.300000  0.300000      2.000000
  0.000000  0.400000  0.300000      2.000000
  0.100000  0.400000  0.300000      2.000000
  0.200000  0.400000  0.300000      2.000000
  0.300000  0.400000  0.300000      2.000000
  0.400000  0.400000  0.300000      2.000000
  0.500000  0.400000  0.300000      2.000000
 -0.400000  0.400000  0.300000      2.000000
 -0.300000  0.400000  0.300000      2.000000
 -0.200000  0.400000  0.300000      2.000000
 -0.100000  0.400000  0.300000      2.000000
  0.000000  0.500000  0.300000      2.000000
  0.100000  0.500000  0.300000      2.000000
  0.200000  0.500000  0.300000      2.000000
  0.300000  0.500000  0.300000      2.000000
  0.400000  0.500000  0.300000      2.000000
  0.500000  0.500000  0.300000      2.000000
 -0.400000  0.500000  0.300000      2.000000
 -0.300000  0.500000  0.300000      2.000000
 -0.200000  0.500000  0.300000      2.000000
 -0.100000  0.500000  0.300000      2.000000
  0.000000 -0.400000  0.300000      2.000000
  0.100000 -0.400000  0.300000      2.000000
  0.200000 -0.400000  0.300000      2.000000
  0.300000 -0.400000  0.300000      2.000000
  0.400000 -0.400000  0.300000      2.000000
  0.500000 -0.400000  0.300000      2.000000
 -0.400000 -0.400000  0.300000      2.000000
 -0.300000 -0.400000  0.300000      2.000000
 -0.200000 -0.400000  0.300000      2.000000
 -0.100000 -0.400000  0.300000      2.000000
  0.000000 -0.300000  0.300000      2.000000
  0.100000 -0.300000  0.300000      2.000000
  0.200000 -0.300000  0.300000      2.000000
  0.300000 -0.300000  0.300000      2.000000
  0.400000 -0.300000  0.300000      2.000000
  0.500000 -0.300000  0.300000      2.000000
 -0.400000 -0.300000  0.300000      2.000000
 -0.300000 -0.300000  0.300000      2.000000
 -0.200000 -0.300000  0.300000      2.000000
 -0.100000 -0.300000  0.300000      2.000000
  0.000000 -0.200000  0.300000      2.000000
  0.100000 -0.200000  0.300000      2.000000
  0.200000 -0.200000  0.300000      2.000000
  0.300000 -0.200000  0.300000      2.000000
  0.400000 -0.200000  0.300000      2.000000
  0.500000 -0.200000  0.300000      2.000000
 -0.400000 -0.200000  0.300000      2.000000
 -0.300000 -0.200000  0.300000      2.000000
 -0.200000 -0.200000  0.300000      2.000000
 -0.100000 -0.200000  0.300000      2.000000
  0.000000 -0.100000  0.300000      2.000000
  0.100000 -0.100000  0.300000      2.000000
  0.200000 -0.100000  0.300000      2.000000
  0.300000 -0.100000  0.300000      2.000000
  0.400000 -0.100000  0.300000      2.000000
  0.500000 -0.100000  0.300000      2.000000
 -0.400000 -0.100000  0.300000      2.000000
 -0.300000 -0.100000  0.300000      2.000000
 -0.200000 -0.100000  0.300000      2.000000
 -0.100000 -0.100000  0.300000      2.000000
  0.000000  0.000000  0.400000      2.000000
  0.100000  0.000000  0.400000      2.000000
  0.200000  0.000000  0.400000      2.000000
  0.300000  0.000000  0.400000      2.000000
  0.400000  0.000000  0.400000      2.000000
  0.500000  0.000000  0.400000      2.000000
 -0.400000  0.000000  0.400000      2.000000
 -0.300000  0.000000  0.400000      2.000000
 -0.200000  0.000000  0.400000      2.000000
 -0.100000  0.000000  0.400000      2.000000
  0.000000  0.100000  0.400000      2.000000
  0.100000  0.100000  0.400000      2.000000
  0.200000  0.100000  0.400000      2.000000
  0.300000  0.100000  0.400000      2.000000
  0.400000  0.100000  0.400000      2.000000
  0.500000  0.100000  0.400000      2.000000
 -0.400000  0.100000  0.400000      2.000000
 -0.300000  0.100000  0.400000      2.000000
 -0.200000  0.100000  0.400000      2.000000
 -0.100000  0.100000  0.400000      2.000000
  0.000000  0.200000  0.400000      2.000000
  0.100000  0.200000  0.400000      2.000000
  0.200000  0.200000  0.400000      2.000000
  0.300000  0.200000  0.400000      2.000000
  0.400000  0.200000  0.400000      2.000000
  0.500000  0.200000  0.400000      2.000000
 -0.400000  0.200000  0.400000      2.000000
 -0.300000  0.200000  0.400000      2.000000
 -0.200000  0.200000  0.400000      2.000000
 -0.100000  0.200000  0.400000      2.000000
  0.000000  0.300000  0.400000      2.000000
  0.100000  0.300000  0.400000      2.000000
  0.200000  0.300000  0.400000      2.000000
  0.300000  0.300000  0.400000      2.000000
  0.400000  0.300000  0.400000      2.000000
  0.500000  0.300000  0.400000      2.000000
 -0.400000  0.300000  0.400000      2.000000
 -0.300000  0.300000  0.400000      2.000000
 -0.200000  0.300000  0.400000      2.000000
 -0.100000  0.300000  0.400000      2.000000
  0.000000  0.400000  0.400000      2.000000
  0.100000  0.400000  0.400000      2.000000
  0.200000  0.400000  0.400000      2.000000
  0.300000  0.400000  0.400000      2.000000
  0.400000  0.400000  0.400000      2.000000
  0.500000  0.400000  0.400000      2.000000
 -0.400000  0.400000  0.400000      2.000000
 -0.300000  0.400000  0.400000      2.000000
 -0.200000  0.400000  0.400000      2.000000
 -0.100000  0.400000  0.400000      2.000000
  0.000000  0.500000  0.400000      2.000000
  0.100000  0.500000  0.400000      2.000000
  0.200000  0.500000  0.400000      2.000000
  0.300000  0.500000  0.400000      2.000000
  0.400000  0.500000  0.400000      2.000000
  0.500000  0.500000  0.400000      2.000000
 -0.400000  0.500000  0.400000      2.000000
 -0.300000  0.500000  0.400000      2.000000
 -0.200000  0.500000  0.400000      2.000000
 -0.100000  0.500000  0.400000      2.000000
  0.000000 -0.400000  0.400000      2.000000
  0.100000 -0.400000  0.400000      2.000000
  0.200000 -0.400000  0.400000      2.000000
  0.300000 -0.400000  0.400000      2.000000
  0.400000 -0.400000  0.400000      2.000000
  0.500000 -0.400000  0.400000      2.000000
 -0.400000 -0.400000  0.400000      2.000000
 -0.300000 -0.400000  0.400000      2.000000
 -0.200000 -0.400000  0.400000      2.000000
 -0.100000 -0.400000  0.400000      2.000000
  0.000000 -0.300000  0.400000      2.000000
  0.100000 -0.300000  0.400000      2.000000
  0.200000 -0.300000  0.400000      2.000000
  0.300000 -0.300000  0.400000      2.000000
  0.400000 -0.300000  0.400000      2.000000
  0.500000 -0.300000  0.400000      2.000000
 -0.400000 -0.300000  0.400000      2.000000
 -0.300000 -0.300000  0.400000      2.000000
 -0.200000 -0.300000  0.400000      2.000000
 -0.100000 -0.300000  0.400000      2.000000
  0.000000 -0.200000  0.400000      2.000000
  0.100000 -0.200000  0.400000      2.000000
  0.200000 -0.200000  0.400000      2.000000
  0.300000 -0.200000  0.400000      2.000000
  0.400000 -0.200000  0.400000      2.000000
  0.500000 -0.200000  0.400000      2.000000
 -0.400000 -0.200000  0.400000      2.000000
 -0.300000 -0.200000  0.400000      2.000000
 -0.200000 -0.200000  0.400000      2.000000
 -0.100000 -0.200000  0.400000      2.000000
  0.000000 -0.100000  0.400000      2.000000
  0.100000 -0.100000  0.400000      2.000000
  0.200000 -0.100000  0.400000      2.000000
  0.300000 -0.100000  0.400000      2.000000
  0.400000 -0.100000  0.400000      2.000000
  0.500000 -0.100000  0.400000      2.000000
 -0.400000 -0.100000  0.400000      2.000000
 -0.300000 -0.100000  0.400000      2.000000
 -0.200000 -0.100000  0.400000      2.000000
 -0.100000 -0.100000  0.400000      2.000000
  0.000000  0.000000  0.500000      1.000000
  0.100000  0.000000  0.500000      2.000000
  0.200000  0.000000  0.500000      2.000000
  0.300000  0.000000  0.500000      2.000000
  0.400000  0.000000  0.500000      2.000000
  0.500000  0.000000  0.500000      1.000000
  0.000000  0.100000  0.500000      2.000000
  0.100000  0.100000  0.500000      2.000000
  0.200000  0.100000  0.500000      2.000000
  0.300000  0.100000  0.500000      2.000000
  0.400000  0.100000  0.500000      2.000000
  0.500000  0.100000  0.500000      2.000000
 -0.400000  0.100000  0.500000      2.000000
 -0.300000  0.100000  0.500000      2.000000
 -0.200000  0.100000  0.500000      2.000000
 -0.100000  0.100000  0.500000      2.000000
  0.000000  0.200000  0.500000      2.000000
  0.100000  0.200000  0.500000      2.000000
  0.200000  0.200000  0.500000      2.000000
  0.300000  0.200000  0.500000      2.000000
  0.400000  0.200000  0.500000      2.000000
  0.500000  0.200000  0.500000      2.000000
 -0.400000  0.200000  0.500000      2.000000
 -0.300000  0.200000  0.500000      2.000000
 -0.200000  0.200000  0.500000      2.000000
 -0.100000  0.200000  0.500000      2.000000
  0.000000  0.300000  0.500000      2.000000
  0.100000  0.300000  0.500000      2.000000
  0.200000  0.300000  0.500000      2.000000
  0.300000  0.300000  0.500000      2.000000
  0.400000  0.300000  0.500000      2.000000
  0.500000  0.300000  0.500000      2.000000
 -0.400000  0.300000  0.500000      2.000000
 -0.300000  0.300000  0.500000      2.000000
 -0.200000  0.300000  0.500000      2.000000
 -0.100000  0.300000  0.500000      2.000000
  0.000000  0.400000  0.500000      2.000000
  0.100000  0.400000  0.500000      2.000000
  0.200000  0.400000  0.500000      2.000000
  0.300000  0.400000  0.500000      2.000000
  0.400000  0.400000  0.500000      2.000000
  0.500000  0.400000  0.500000      2.000000
 -0.400000  0.400000  0.500000      2.000000
 -0.300000  0.400000  0.500000      2.000000
 -0.200000  0.400000  0.500000      2.000000
 -0.100000  0.400000  0.500000      2.000000
  0.000000  0.500000  0.500000      1.000000
  0.100000  0.500000  0.500000      2.000000
  0.200000  0.500000  0.500000      2.000000
  0.300000  0.500000  0.500000      2.000000
  0.400000  0.500000  0.500000      2.000000
  0.500000  0.500000  0.500000      1.000000
 
 Following cartesian coordinates:
            Coordinates               Weight
  0.000000  0.000000  0.000000      1.000000
  0.010189  0.000000  0.000000      2.000000
  0.020377  0.000000  0.000000      2.000000
  0.030566  0.000000  0.000000      2.000000
  0.040754  0.000000  0.000000      2.000000
  0.050943  0.000000  0.000000      1.000000
  0.000000  0.010189  0.000000      2.000000
  0.010189  0.010189  0.000000      2.000000
  0.020377  0.010189  0.000000      2.000000
  0.030566  0.010189  0.000000      2.000000
  0.040754  0.010189  0.000000      2.000000
  0.050943  0.010189  0.000000      2.000000
 -0.040754  0.010189  0.000000      2.000000
 -0.030566  0.010189  0.000000      2.000000
 -0.020377  0.010189  0.000000      2.000000
 -0.010189  0.010189  0.000000      2.000000
  0.000000  0.020377  0.000000      2.000000
  0.010189  0.020377  0.000000      2.000000
  0.020377  0.020377  0.000000      2.000000
  0.030566  0.020377  0.000000      2.000000
  0.040754  0.020377  0.000000      2.000000
  0.050943  0.020377  0.000000      2.000000
 -0.040754  0.020377  0.000000      2.000000
 -0.030566  0.020377  0.000000      2.000000
 -0.020377  0.020377  0.000000      2.000000
 -0.010189  0.020377  0.000000      2.000000
  0.000000  0.030566  0.000000      2.000000
  0.010189  0.030566  0.000000      2.000000
  0.020377  0.030566  0.000000      2.000000
  0.030566  0.030566  0.000000      2.000000
  0.040754  0.030566  0.000000      2.000000
  0.050943  0.030566  0.000000      2.000000
 -0.040754  0.030566  0.000000      2.000000
 -0.030566  0.030566  0.000000      2.000000
 -0.020377  0.030566  0.000000      2.000000
 -0.010189  0.030566  0.000000      2.000000
  0.000000  0.040754  0.000000      2.000000
  0.010189  0.040754  0.000000      2.000000
  0.020377  0.040754  0.000000      2.000000
  0.030566  0.040754  0.000000      2.000000
  0.040754  0.040754  0.000000      2.000000
  0.050943  0.040754  0.000000      2.000000
 -0.040754  0.040754  0.000000      2.000000
 -0.030566  0.040754  0.000000      2.000000
 -0.020377  0.040754  0.000000      2.000000
 -0.010189  0.040754  0.000000      2.000000
  0.000000  0.050943  0.000000      1.000000
  0.010189  0.050943  0.000000      2.000000
  0.020377  0.050943  0.000000      2.000000
  0.030566  0.050943  0.000000      2.000000
  0.040754  0.050943  0.000000      2.000000
  0.050943  0.050943  0.000000      1.000000
  0.000000  0.000000  0.010189      2.000000
  0.010189  0.000000  0.010189      2.000000
  0.020377  0.000000  0.010189      2.000000
  0.030566  0.000000  0.010189      2.000000
  0.040754  0.000000  0.010189      2.000000
  0.050943  0.000000  0.010189      2.000000
 -0.040754  0.000000  0.010189      2.000000
 -0.030566  0.000000  0.010189      2.000000
 -0.020377  0.000000  0.010189      2.000000
 -0.010189  0.000000  0.010189      2.000000
  0.000000  0.010189  0.010189      2.000000
  0.010189  0.010189  0.010189      2.000000
  0.020377  0.010189  0.010189      2.000000
  0.030566  0.010189  0.010189      2.000000
  0.040754  0.010189  0.010189      2.000000
  0.050943  0.010189  0.010189      2.000000
 -0.040754  0.010189  0.010189      2.000000
 -0.030566  0.010189  0.010189      2.000000
 -0.020377  0.010189  0.010189      2.000000
 -0.010189  0.010189  0.010189      2.000000
  0.000000  0.020377  0.010189      2.000000
  0.010189  0.020377  0.010189      2.000000
  0.020377  0.020377  0.010189      2.000000
  0.030566  0.020377  0.010189      2.000000
  0.040754  0.020377  0.010189      2.000000
  0.050943  0.020377  0.010189      2.000000
 -0.040754  0.020377  0.010189      2.000000
 -0.030566  0.020377  0.010189      2.000000
 -0.020377  0.020377  0.010189      2.000000
 -0.010189  0.020377  0.010189      2.000000
  0.000000  0.030566  0.010189      2.000000
  0.010189  0.030566  0.010189      2.000000
  0.020377  0.030566  0.010189      2.000000
  0.030566  0.030566  0.010189      2.000000
  0.040754  0.030566  0.010189      2.000000
  0.050943  0.030566  0.010189      2.000000
 -0.040754  0.030566  0.010189      2.000000
 -0.030566  0.030566  0.010189      2.000000
 -0.020377  0.030566  0.010189      2.000000
 -0.010189  0.030566  0.010189      2.000000
  0.000000  0.040754  0.010189      2.000000
  0.010189  0.040754  0.010189      2.000000
  0.020377  0.040754  0.010189      2.000000
  0.030566  0.040754  0.010189      2.000000
  0.040754  0.040754  0.010189      2.000000
  0.050943  0.040754  0.010189      2.000000
 -0.040754  0.040754  0.010189      2.000000
 -0.030566  0.040754  0.010189      2.000000
 -0.020377  0.040754  0.010189      2.000000
 -0.010189  0.040754  0.010189      2.000000
  0.000000  0.050943  0.010189      2.000000
  0.010189  0.050943  0.010189      2.000000
  0.020377  0.050943  0.010189      2.000000
  0.030566  0.050943  0.010189      2.000000
  0.040754  0.050943  0.010189      2.000000
  0.050943  0.050943  0.010189      2.000000
 -0.040754  0.050943  0.010189      2.000000
 -0.030566  0.050943  0.010189      2.000000
 -0.020377  0.050943  0.010189      2.000000
 -0.010189  0.050943  0.010189      2.000000
  0.000000 -0.040754  0.010189      2.000000
  0.010189 -0.040754  0.010189      2.000000
  0.020377 -0.040754  0.010189      2.000000
  0.030566 -0.040754  0.010189      2.000000
  0.040754 -0.040754  0.010189      2.000000
  0.050943 -0.040754  0.010189      2.000000
 -0.040754 -0.040754  0.010189      2.000000
 -0.030566 -0.040754  0.010189      2.000000
 -0.020377 -0.040754  0.010189      2.000000
 -0.010189 -0.040754  0.010189      2.000000
  0.000000 -0.030566  0.010189      2.000000
  0.010189 -0.030566  0.010189      2.000000
  0.020377 -0.030566  0.010189      2.000000
  0.030566 -0.030566  0.010189      2.000000
  0.040754 -0.030566  0.010189      2.000000
  0.050943 -0.030566  0.010189      2.000000
 -0.040754 -0.030566  0.010189      2.000000
 -0.030566 -0.030566  0.010189      2.000000
 -0.020377 -0.030566  0.010189      2.000000
 -0.010189 -0.030566  0.010189      2.000000
  0.000000 -0.020377  0.010189      2.000000
  0.010189 -0.020377  0.010189      2.000000
  0.020377 -0.020377  0.010189      2.000000
  0.030566 -0.020377  0.010189      2.000000
  0.040754 -0.020377  0.010189      2.000000
  0.050943 -0.020377  0.010189      2.000000
 -0.040754 -0.020377  0.010189      2.000000
 -0.030566 -0.020377  0.010189      2.000000
 -0.020377 -0.020377  0.010189      2.000000
 -0.010189 -0.020377  0.010189      2.000000
  0.000000 -0.010189  0.010189      2.000000
  0.010189 -0.010189  0.010189      2.000000
  0.020377 -0.010189  0.010189      2.000000
  0.030566 -0.010189  0.010189      2.000000
  0.040754 -0.010189  0.010189      2.000000
  0.050943 -0.010189  0.010189      2.000000
 -0.040754 -0.010189  0.010189      2.000000
 -0.030566 -0.010189  0.010189      2.000000
 -0.020377 -0.010189  0.010189      2.000000
 -0.010189 -0.010189  0.010189      2.000000
  0.000000  0.000000  0.020377      2.000000
  0.010189  0.000000  0.020377      2.000000
  0.020377  0.000000  0.020377      2.000000
  0.030566  0.000000  0.020377      2.000000
  0.040754  0.000000  0.020377      2.000000
  0.050943  0.000000  0.020377      2.000000
 -0.040754  0.000000  0.020377      2.000000
 -0.030566  0.000000  0.020377      2.000000
 -0.020377  0.000000  0.020377      2.000000
 -0.010189  0.000000  0.020377      2.000000
  0.000000  0.010189  0.020377      2.000000
  0.010189  0.010189  0.020377      2.000000
  0.020377  0.010189  0.020377      2.000000
  0.030566  0.010189  0.020377      2.000000
  0.040754  0.010189  0.020377      2.000000
  0.050943  0.010189  0.020377      2.000000
 -0.040754  0.010189  0.020377      2.000000
 -0.030566  0.010189  0.020377      2.000000
 -0.020377  0.010189  0.020377      2.000000
 -0.010189  0.010189  0.020377      2.000000
  0.000000  0.020377  0.020377      2.000000
  0.010189  0.020377  0.020377      2.000000
  0.020377  0.020377  0.020377      2.000000
  0.030566  0.020377  0.020377      2.000000
  0.040754  0.020377  0.020377      2.000000
  0.050943  0.020377  0.020377      2.000000
 -0.040754  0.020377  0.020377      2.000000
 -0.030566  0.020377  0.020377      2.000000
 -0.020377  0.020377  0.020377      2.000000
 -0.010189  0.020377  0.020377      2.000000
  0.000000  0.030566  0.020377      2.000000
  0.010189  0.030566  0.020377      2.000000
  0.020377  0.030566  0.020377      2.000000
  0.030566  0.030566  0.020377      2.000000
  0.040754  0.030566  0.020377      2.000000
  0.050943  0.030566  0.020377      2.000000
 -0.040754  0.030566  0.020377      2.000000
 -0.030566  0.030566  0.020377      2.000000
 -0.020377  0.030566  0.020377      2.000000
 -0.010189  0.030566  0.020377      2.000000
  0.000000  0.040754  0.020377      2.000000
  0.010189  0.040754  0.020377      2.000000
  0.020377  0.040754  0.020377      2.000000
  0.030566  0.040754  0.020377      2.000000
  0.040754  0.040754  0.020377      2.000000
  0.050943  0.040754  0.020377      2.000000
 -0.040754  0.040754  0.020377      2.000000
 -0.030566  0.040754  0.020377      2.000000
 -0.020377  0.040754  0.020377      2.000000
 -0.010189  0.040754  0.020377      2.000000
  0.000000  0.050943  0.020377      2.000000
  0.010189  0.050943  0.020377      2.000000
  0.020377  0.050943  0.020377      2.000000
  0.030566  0.050943  0.020377      2.000000
  0.040754  0.050943  0.020377      2.000000
  0.050943  0.050943  0.020377      2.000000
 -0.040754  0.050943  0.020377      2.000000
 -0.030566  0.050943  0.020377      2.000000
 -0.020377  0.050943  0.020377      2.000000
 -0.010189  0.050943  0.020377      2.000000
  0.000000 -0.040754  0.020377      2.000000
  0.010189 -0.040754  0.020377      2.000000
  0.020377 -0.040754  0.020377      2.000000
  0.030566 -0.040754  0.020377      2.000000
  0.040754 -0.040754  0.020377      2.000000
  0.050943 -0.040754  0.020377      2.000000
 -0.040754 -0.040754  0.020377      2.000000
 -0.030566 -0.040754  0.020377      2.000000
 -0.020377 -0.040754  0.020377      2.000000
 -0.010189 -0.040754  0.020377      2.000000
  0.000000 -0.030566  0.020377      2.000000
  0.010189 -0.030566  0.020377      2.000000
  0.020377 -0.030566  0.020377      2.000000
  0.030566 -0.030566  0.020377      2.000000
  0.040754 -0.030566  0.020377      2.000000
  0.050943 -0.030566  0.020377      2.000000
 -0.040754 -0.030566  0.020377      2.000000
 -0.030566 -0.030566  0.020377      2.000000
 -0.020377 -0.030566  0.020377      2.000000
 -0.010189 -0.030566  0.020377      2.000000
  0.000000 -0.020377  0.020377      2.000000
  0.010189 -0.020377  0.020377      2.000000
  0.020377 -0.020377  0.020377      2.000000
  0.030566 -0.020377  0.020377      2.000000
  0.040754 -0.020377  0.020377      2.000000
  0.050943 -0.020377  0.020377      2.000000
 -0.040754 -0.020377  0.020377      2.000000
 -0.030566 -0.020377  0.020377      2.000000
 -0.020377 -0.020377  0.020377      2.000000
 -0.010189 -0.020377  0.020377      2.000000
  0.000000 -0.010189  0.020377      2.000000
  0.010189 -0.010189  0.020377      2.000000
  0.020377 -0.010189  0.020377      2.000000
  0.030566 -0.010189  0.020377      2.000000
  0.040754 -0.010189  0.020377      2.000000
  0.050943 -0.010189  0.020377      2.000000
 -0.040754 -0.010189  0.020377      2.000000
 -0.030566 -0.010189  0.020377      2.000000
 -0.020377 -0.010189  0.020377      2.000000
 -0.010189 -0.010189  0.020377      2.000000
  0.000000  0.000000  0.030566      2.000000
  0.010189  0.000000  0.030566      2.000000
  0.020377  0.000000  0.030566      2.000000
  0.030566  0.000000  0.030566      2.000000
  0.040754  0.000000  0.030566      2.000000
  0.050943  0.000000  0.030566      2.000000
 -0.040754  0.000000  0.030566      2.000000
 -0.030566  0.000000  0.030566      2.000000
 -0.020377  0.000000  0.030566      2.000000
 -0.010189  0.000000  0.030566      2.000000
  0.000000  0.010189  0.030566      2.000000
  0.010189  0.010189  0.030566      2.000000
  0.020377  0.010189  0.030566      2.000000
  0.030566  0.010189  0.030566      2.000000
  0.040754  0.010189  0.030566      2.000000
  0.050943  0.010189  0.030566      2.000000
 -0.040754  0.010189  0.030566      2.000000
 -0.030566  0.010189  0.030566      2.000000
 -0.020377  0.010189  0.030566      2.000000
 -0.010189  0.010189  0.030566      2.000000
  0.000000  0.020377  0.030566      2.000000
  0.010189  0.020377  0.030566      2.000000
  0.020377  0.020377  0.030566      2.000000
  0.030566  0.020377  0.030566      2.000000
  0.040754  0.020377  0.030566      2.000000
  0.050943  0.020377  0.030566      2.000000
 -0.040754  0.020377  0.030566      2.000000
 -0.030566  0.020377  0.030566      2.000000
 -0.020377  0.020377  0.030566      2.000000
 -0.010189  0.020377  0.030566      2.000000
  0.000000  0.030566  0.030566      2.000000
  0.010189  0.030566  0.030566      2.000000
  0.020377  0.030566  0.030566      2.000000
  0.030566  0.030566  0.030566      2.000000
  0.040754  0.030566  0.030566      2.000000
  0.050943  0.030566  0.030566      2.000000
 -0.040754  0.030566  0.030566      2.000000
 -0.030566  0.030566  0.030566      2.000000
 -0.020377  0.030566  0.030566      2.000000
 -0.010189  0.030566  0.030566      2.000000
  0.000000  0.040754  0.030566      2.000000
  0.010189  0.040754  0.030566      2.000000
  0.020377  0.040754  0.030566      2.000000
  0.030566  0.040754  0.030566      2.000000
  0.040754  0.040754  0.030566      2.000000
  0.050943  0.040754  0.030566      2.000000
 -0.040754  0.040754  0.030566      2.000000
 -0.030566  0.040754  0.030566      2.000000
 -0.020377  0.040754  0.030566      2.000000
 -0.010189  0.040754  0.030566      2.000000
  0.000000  0.050943  0.030566      2.000000
  0.010189  0.050943  0.030566      2.000000
  0.020377  0.050943  0.030566      2.000000
  0.030566  0.050943  0.030566      2.000000
  0.040754  0.050943  0.030566      2.000000
  0.050943  0.050943  0.030566      2.000000
 -0.040754  0.050943  0.030566      2.000000
 -0.030566  0.050943  0.030566      2.000000
 -0.020377  0.050943  0.030566      2.000000
 -0.010189  0.050943  0.030566      2.000000
  0.000000 -0.040754  0.030566      2.000000
  0.010189 -0.040754  0.030566      2.000000
  0.020377 -0.040754  0.030566      2.000000
  0.030566 -0.040754  0.030566      2.000000
  0.040754 -0.040754  0.030566      2.000000
  0.050943 -0.040754  0.030566      2.000000
 -0.040754 -0.040754  0.030566      2.000000
 -0.030566 -0.040754  0.030566      2.000000
 -0.020377 -0.040754  0.030566      2.000000
 -0.010189 -0.040754  0.030566      2.000000
  0.000000 -0.030566  0.030566      2.000000
  0.010189 -0.030566  0.030566      2.000000
  0.020377 -0.030566  0.030566      2.000000
  0.030566 -0.030566  0.030566      2.000000
  0.040754 -0.030566  0.030566      2.000000
  0.050943 -0.030566  0.030566      2.000000
 -0.040754 -0.030566  0.030566      2.000000
 -0.030566 -0.030566  0.030566      2.000000
 -0.020377 -0.030566  0.030566      2.000000
 -0.010189 -0.030566  0.030566      2.000000
  0.000000 -0.020377  0.030566      2.000000
  0.010189 -0.020377  0.030566      2.000000
  0.020377 -0.020377  0.030566      2.000000
  0.030566 -0.020377  0.030566      2.000000
  0.040754 -0.020377  0.030566      2.000000
  0.050943 -0.020377  0.030566      2.000000
 -0.040754 -0.020377  0.030566      2.000000
 -0.030566 -0.020377  0.030566      2.000000
 -0.020377 -0.020377  0.030566      2.000000
 -0.010189 -0.020377  0.030566      2.000000
  0.000000 -0.010189  0.030566      2.000000
  0.010189 -0.010189  0.030566      2.000000
  0.020377 -0.010189  0.030566      2.000000
  0.030566 -0.010189  0.030566      2.000000
  0.040754 -0.010189  0.030566      2.000000
  0.050943 -0.010189  0.030566      2.000000
 -0.040754 -0.010189  0.030566      2.000000
 -0.030566 -0.010189  0.030566      2.000000
 -0.020377 -0.010189  0.030566      2.000000
 -0.010189 -0.010189  0.030566      2.000000
  0.000000  0.000000  0.040754      2.000000
  0.010189  0.000000  0.040754      2.000000
  0.020377  0.000000  0.040754      2.000000
  0.030566  0.000000  0.040754      2.000000
  0.040754  0.000000  0.040754      2.000000
  0.050943  0.000000  0.040754      2.000000
 -0.040754  0.000000  0.040754      2.000000
 -0.030566  0.000000  0.040754      2.000000
 -0.020377  0.000000  0.040754      2.000000
 -0.010189  0.000000  0.040754      2.000000
  0.000000  0.010189  0.040754      2.000000
  0.010189  0.010189  0.040754      2.000000
  0.020377  0.010189  0.040754      2.000000
  0.030566  0.010189  0.040754      2.000000
  0.040754  0.010189  0.040754      2.000000
  0.050943  0.010189  0.040754      2.000000
 -0.040754  0.010189  0.040754      2.000000
 -0.030566  0.010189  0.040754      2.000000
 -0.020377  0.010189  0.040754      2.000000
 -0.010189  0.010189  0.040754      2.000000
  0.000000  0.020377  0.040754      2.000000
  0.010189  0.020377  0.040754      2.000000
  0.020377  0.020377  0.040754      2.000000
  0.030566  0.020377  0.040754      2.000000
  0.040754  0.020377  0.040754      2.000000
  0.050943  0.020377  0.040754      2.000000
 -0.040754  0.020377  0.040754      2.000000
 -0.030566  0.020377  0.040754      2.000000
 -0.020377  0.020377  0.040754      2.000000
 -0.010189  0.020377  0.040754      2.000000
  0.000000  0.030566  0.040754      2.000000
  0.010189  0.030566  0.040754      2.000000
  0.020377  0.030566  0.040754      2.000000
  0.030566  0.030566  0.040754      2.000000
  0.040754  0.030566  0.040754      2.000000
  0.050943  0.030566  0.040754      2.000000
 -0.040754  0.030566  0.040754      2.000000
 -0.030566  0.030566  0.040754      2.000000
 -0.020377  0.030566  0.040754      2.000000
 -0.010189  0.030566  0.040754      2.000000
  0.000000  0.040754  0.040754      2.000000
  0.010189  0.040754  0.040754      2.000000
  0.020377  0.040754  0.040754      2.000000
  0.030566  0.040754  0.040754      2.000000
  0.040754  0.040754  0.040754      2.000000
  0.050943  0.040754  0.040754      2.000000
 -0.040754  0.040754  0.040754      2.000000
 -0.030566  0.040754  0.040754      2.000000
 -0.020377  0.040754  0.040754      2.000000
 -0.010189  0.040754  0.040754      2.000000
  0.000000  0.050943  0.040754      2.000000
  0.010189  0.050943  0.040754      2.000000
  0.020377  0.050943  0.040754      2.000000
  0.030566  0.050943  0.040754      2.000000
  0.040754  0.050943  0.040754      2.000000
  0.050943  0.050943  0.040754      2.000000
 -0.040754  0.050943  0.040754      2.000000
 -0.030566  0.050943  0.040754      2.000000
 -0.020377  0.050943  0.040754      2.000000
 -0.010189  0.050943  0.040754      2.000000
  0.000000 -0.040754  0.040754      2.000000
  0.010189 -0.040754  0.040754      2.000000
  0.020377 -0.040754  0.040754      2.000000
  0.030566 -0.040754  0.040754      2.000000
  0.040754 -0.040754  0.040754      2.000000
  0.050943 -0.040754  0.040754      2.000000
 -0.040754 -0.040754  0.040754      2.000000
 -0.030566 -0.040754  0.040754      2.000000
 -0.020377 -0.040754  0.040754      2.000000
 -0.010189 -0.040754  0.040754      2.000000
  0.000000 -0.030566  0.040754      2.000000
  0.010189 -0.030566  0.040754      2.000000
  0.020377 -0.030566  0.040754      2.000000
  0.030566 -0.030566  0.040754      2.000000
  0.040754 -0.030566  0.040754      2.000000
  0.050943 -0.030566  0.040754      2.000000
 -0.040754 -0.030566  0.040754      2.000000
 -0.030566 -0.030566  0.040754      2.000000
 -0.020377 -0.030566  0.040754      2.000000
 -0.010189 -0.030566  0.040754      2.000000
  0.000000 -0.020377  0.040754      2.000000
  0.010189 -0.020377  0.040754      2.000000
  0.020377 -0.020377  0.040754      2.000000
  0.030566 -0.020377  0.040754      2.000000
  0.040754 -0.020377  0.040754      2.000000
  0.050943 -0.020377  0.040754      2.000000
 -0.040754 -0.020377  0.040754      2.000000
 -0.030566 -0.020377  0.040754      2.000000
 -0.020377 -0.020377  0.040754      2.000000
 -0.010189 -0.020377  0.040754      2.000000
  0.000000 -0.010189  0.040754      2.000000
  0.010189 -0.010189  0.040754      2.000000
  0.020377 -0.010189  0.040754      2.000000
  0.030566 -0.010189  0.040754      2.000000
  0.040754 -0.010189  0.040754      2.000000
  0.050943 -0.010189  0.040754      2.000000
 -0.040754 -0.010189  0.040754      2.000000
 -0.030566 -0.010189  0.040754      2.000000
 -0.020377 -0.010189  0.040754      2.000000
 -0.010189 -0.010189  0.040754      2.000000
  0.000000  0.000000  0.050943      1.000000
  0.010189  0.000000  0.050943      2.000000
  0.020377  0.000000  0.050943      2.000000
  0.030566  0.000000  0.050943      2.000000
  0.040754  0.000000  0.050943      2.000000
  0.050943  0.000000  0.050943      1.000000
  0.000000  0.010189  0.050943      2.000000
  0.010189  0.010189  0.050943      2.000000
  0.020377  0.010189  0.050943      2.000000
  0.030566  0.010189  0.050943      2.000000
  0.040754  0.010189  0.050943      2.000000
  0.050943  0.010189  0.050943      2.000000
 -0.040754  0.010189  0.050943      2.000000
 -0.030566  0.010189  0.050943      2.000000
 -0.020377  0.010189  0.050943      2.000000
 -0.010189  0.010189  0.050943      2.000000
  0.000000  0.020377  0.050943      2.000000
  0.010189  0.020377  0.050943      2.000000
  0.020377  0.020377  0.050943      2.000000
  0.030566  0.020377  0.050943      2.000000
  0.040754  0.020377  0.050943      2.000000
  0.050943  0.020377  0.050943      2.000000
 -0.040754  0.020377  0.050943      2.000000
 -0.030566  0.020377  0.050943      2.000000
 -0.020377  0.020377  0.050943      2.000000
 -0.010189  0.020377  0.050943      2.000000
  0.000000  0.030566  0.050943      2.000000
  0.010189  0.030566  0.050943      2.000000
  0.020377  0.030566  0.050943      2.000000
  0.030566  0.030566  0.050943      2.000000
  0.040754  0.030566  0.050943      2.000000
  0.050943  0.030566  0.050943      2.000000
 -0.040754  0.030566  0.050943      2.000000
 -0.030566  0.030566  0.050943      2.000000
 -0.020377  0.030566  0.050943      2.000000
 -0.010189  0.030566  0.050943      2.000000
  0.000000  0.040754  0.050943      2.000000
  0.010189  0.040754  0.050943      2.000000
  0.020377  0.040754  0.050943      2.000000
  0.030566  0.040754  0.050943      2.000000
  0.040754  0.040754  0.050943      2.000000
  0.050943  0.040754  0.050943      2.000000
 -0.040754  0.040754  0.050943      2.000000
 -0.030566  0.040754  0.050943      2.000000
 -0.020377  0.040754  0.050943      2.000000
 -0.010189  0.040754  0.050943      2.000000
  0.000000  0.050943  0.050943      1.000000
  0.010189  0.050943  0.050943      2.000000
  0.020377  0.050943  0.050943      2.000000
  0.030566  0.050943  0.050943      2.000000
  0.040754  0.050943  0.050943      2.000000
  0.050943  0.050943  0.050943      1.000000
 


--------------------------------------------------------------------------------------------------------




 Dimension of arrays:
   k-points           NKPTS =    504   k-points in BZ     NKDIM =    504   number of bands    NBANDS=    172
   number of dos      NEDOS =    301   number of ions     NIONS =     93
   non local maximal  LDIM  =      4   non local SUM 2l+1 LMDIM =      8
   total plane-waves  NPLWV = 110592
   max r-space proj   IRMAX =   1339   max aug-charges    IRDMAX=   1717
   dimension x,y,z NGX =    48 NGY =   48 NGZ =   48
   dimension x,y,z NGXF=    96 NGYF=   96 NGZF=   96
   support grid    NGXF=    96 NGYF=   96 NGZF=   96
   ions per type =              31  62
   NGX,Y,Z   is equivalent  to a cutoff of   8.13,  8.13,  8.13 a.u.
   NGXF,Y,Z  is equivalent  to a cutoff of  16.26, 16.26, 16.26 a.u.

 SYSTEM =  ice                                     
 POSCAR =  # 4                                     

 Startparameter for this run:
   NWRITE =      0    write-flag & timer
   PREC   = normal    normal or accurate (medium, high low for compatibility)
   ISTART =      0    job   : 0-new  1-cont  2-samecut
   ICHARG =      1    charge: 1-file 2-atom 10-const
   ISPIN  =      1    spin polarized calculation?
   LNONCOLLINEAR =      F non collinear calculations
   LSORBIT =      F    spin-orbit coupling
   INIWAV =      1    electr: 0-lowe 1-rand  2-diag
   LASPH  =      F    aspherical Exc in radial PAW
   METAGGA=      F    non-selfconsistent MetaGGA calc.

 Electronic Relaxation 1
   ENCUT  =  400.0 eV  29.40 Ry    5.42 a.u.  16.01 16.01 16.01*2*pi/ulx,y,z
   ENINI  =  400.0     initial cutoff
   ENAUG  =  605.4 eV  augmentation charge cutoff
   NELM   =    500;   NELMIN=  4; NELMDL=  0     # of ELM steps 
   EDIFF  = 0.1E-05   stopping-criterion for ELM
   LREAL  =      T    real-space projection
   NLSPLINE    = F    spline interpolate recip. space projectors
   LCOMPAT=      F    compatible to vasp.4.4
   GGA_COMPAT  = T    GGA compatible to vasp.4.4-vasp.4.6
   LMAXPAW     = -100 max onsite density
   LMAXMIX     =    2 max onsite mixed and CHGCAR
   VOSKOWN=      0    Vosko Wilk Nusair interpolation
   ROPT   =   -0.00050  -0.00050
 Ionic relaxation
   EDIFFG = 0.1E-04   stopping-criterion for IOM
   NSW    =      0    number of steps for IOM
   NBLOCK =      1;   KBLOCK =      1    inner block; outer block 
   IBRION =     -1    ionic relax: 0-MD 1-quasi-New 2-CG
   NFREE  =      0    steps in history (QN), initial steepest desc. (CG)
   ISIF   =      2    stress and relaxation
   IWAVPR =     10    prediction:  0-non 1-charg 2-wave 3-comb
   ISYM   =      2    0-nonsym 1-usesym 2-fastsym
   LCORR  =      T    Harris-Foulkes like correction to forces

   POTIM  = 0.5000    time-step for ionic-motion
   TEIN   =    0.0    initial temperature
   TEBEG  =    0.0;   TEEND  =   0.0 temperature during run
   SMASS  =  -3.00    Nose mass-parameter (am)
   estimated Nose-frequenzy (Omega)   =  0.10E-29 period in steps =****** mass=  -0.220E-26a.u.
   SCALEE = 1.0000    scale energy and forces
   NPACO  =    256;   APACO  = 16.0  distance and # of slots for P.C.
   PSTRESS=    0.0 pullay stress

  Mass of Ions in am
   POMASS =  16.00  1.00
  Ionic Valenz
   ZVAL   =   6.00  1.00
  Atomic Wigner-Seitz radii
   RWIGS  =  -1.00 -1.00
  virtual crystal weights 
   VCA    =   1.00  1.00
   NELECT =     248.0000    total number of electrons
   NUPDOWN=      -1.0000    fix difference up-down

 DOS related values:
   EMIN   =  10.00;   EMAX   =-10.00  energy-range for DOS
   EFERMI =   0.00
   ISMEAR =    -1;   SIGMA  =   0.05  broadening in eV -4-tet -1-fermi 0-gaus

 Electronic relaxation 2 (details)
   IALGO  =     48    algorithm
   LDIAG  =      T    sub-space diagonalisation (order eigenvalues)
   LSUBROT=      F    optimize rotation matrix (better conditioning)
   TURBO    =      0    0=normal 1=particle mesh
   IRESTART =      0    0=no restart 2=restart with 2 vectors
   NREBOOT  =      0    no. of reboots
   NMIN     =      0    reboot dimension
   EREF     =   0.00    reference energy to select bands
   IMIX   =      4    mixing-type and parameters
     AMIX     =   0.40;   BMIX     =  1.00
     AMIX_MAG =   1.60;   BMIX_MAG =  1.00
     AMIN     =   0.10
     WC   =   100.;   INIMIX=   1;  MIXPRE=   1;  MAXMIX=  40

 Intra band minimization:
   WEIMIN = 0.0000     energy-eigenvalue tresh-hold
   EBREAK =  0.15E-08  absolut break condition
   DEPER  =   0.30     relativ break condition  

   TIME   =   0.40     timestep for ELM

  volume/ion in A,a.u.               =      10.17        68.61
  Fermi-wavevector in a.u.,A,eV,Ry     =   1.047947  1.980334 14.941835  1.098194
  Thomas-Fermi vector in A             =   2.182849
 
 Write flags
   LWAVE        =      F    write WAVECAR
   LDOWNSAMPLE  =      F    k-point downsampling of WAVECAR
   LCHARG       =      F    write CHGCAR
   LVTOT        =      F    write LOCPOT, total local potential
   LVHAR        =      T    write LOCPOT, Hartree potential only
   LELF         =      F    write electronic localiz. function (ELF)
   LORBIT       =      0    0 simple, 1 ext, 2 COOP (PROOUT), +10 PAW based schemes


 Dipole corrections
   LMONO  =      F    monopole corrections only (constant potential shift)
   LDIPOL =      F    correct potential (dipole corrections)
   IDIPOL =      0    1-x, 2-y, 3-z, 4-all directions 
   EPSILON=  1.0000000 bulk dielectric constant

 Exchange correlation treatment:
   GGA     =    --    GGA type
   LEXCH   =     8    internal setting for exchange type
   VOSKOWN=      0    Vosko Wilk Nusair interpolation
   LHFCALC =     F    Hartree Fock is set to
   LHFONE  =     F    Hartree Fock one center treatment
   AEXX    =    0.0000 exact exchange contribution

 Linear response parameters
   LEPSILON=     F    determine dielectric tensor
   LRPA    =     F    only Hartree local field effects (RPA)
   LNABLA  =     F    use nabla operator in PAW spheres
   LVEL    =     F    velocity operator in full k-point grid
   LINTERFAST=   F  fast interpolation
   KINTER  =     0    interpolate to denser k-point grid
   CSHIFT  =0.1000    complex shift for real part using Kramers Kronig
   OMEGAMAX=  -1.0    maximum frequency
   DEG_THRESHOLD= 0.2000000E-02 threshold for treating states as degnerate
   RTIME   =   -0.100 relaxation time in fs
  (WPLASMAI=    0.000 imaginary part of plasma frequency in eV, 0.658/RTIME)
   DFIELD  = 0.0000000 0.0000000 0.0000000 field for delta impulse in time
 
 Orbital magnetization related:
   ORBITALMAG=     F  switch on orbital magnetization
   LCHIMAG   =     F  perturbation theory with respect to B field
   DQ        =  0.001000  dq finite difference perturbation B field
   LLRAUG    =     F  two centre corrections for induced B field



--------------------------------------------------------------------------------------------------------


 Static calculation
 charge density and potential will be updated during run
 non-spin polarized calculation
 RMM-DIIS sequential band-by-band
 perform sub-space diagonalisation
    before iterative eigenvector-optimisation
 modified Broyden-mixing scheme, WC =      100.0
 initial mixing is a Kerker type mixing with AMIX =  0.4000 and BMIX =      1.0000
 Hartree-type preconditioning will be used
 using additional bands           48
 real space projection scheme for non local part
 use partial core corrections
 calculate Harris-corrections to forces 
   (improved forces if not selfconsistent)
 use gradient corrections 
 use of overlap-Matrix (Vanderbilt PP)
 Fermi-smearing in eV        SIGMA  =   0.05


--------------------------------------------------------------------------------------------------------


  energy-cutoff  :      400.00
  volume of cell :      945.49
      direct lattice vectors                 reciprocal lattice vectors
     9.814900000  0.000000000  0.000000000     0.101885908  0.000000000  0.000000000
     0.000000000  9.814900000  0.000000000     0.000000000  0.101885908  0.000000000
     0.000000000  0.000000000  9.814900000     0.000000000  0.000000000  0.101885908

  length of vectors
     9.814900000  9.814900000  9.814900000     0.101885908  0.101885908  0.101885908


 
 k-points in units of 2pi/SCALE and weight: automatic mesh                          
   0.00000000  0.00000000  0.00000000       0.001
   0.01018859  0.00000000  0.00000000       0.002
   0.02037718  0.00000000  0.00000000       0.002
   0.03056577  0.00000000  0.00000000       0.002
   0.04075436  0.00000000  0.00000000       0.002
   0.05094295  0.00000000  0.00000000       0.001
   0.00000000  0.01018859  0.00000000       0.002
   0.01018859  0.01018859  0.00000000       0.002
   0.02037718  0.01018859  0.00000000       0.002
   0.03056577  0.01018859  0.00000000       0.002
   0.04075436  0.01018859  0.00000000       0.002
   0.05094295  0.01018859  0.00000000       0.002
  -0.04075436  0.01018859  0.00000000       0.002
  -0.03056577  0.01018859  0.00000000       0.002
  -0.02037718  0.01018859  0.00000000       0.002
  -0.01018859  0.01018859  0.00000000       0.002
   0.00000000  0.02037718  0.00000000       0.002
   0.01018859  0.02037718  0.00000000       0.002
   0.02037718  0.02037718  0.00000000       0.002
   0.03056577  0.02037718  0.00000000       0.002
   0.04075436  0.02037718  0.00000000       0.002
   0.05094295  0.02037718  0.00000000       0.002
  -0.04075436  0.02037718  0.00000000       0.002
  -0.03056577  0.02037718  0.00000000       0.002
  -0.02037718  0.02037718  0.00000000       0.002
  -0.01018859  0.02037718  0.00000000       0.002
   0.00000000  0.03056577  0.00000000       0.002
   0.01018859  0.03056577  0.00000000       0.002
   0.02037718  0.03056577  0.00000000       0.002
   0.03056577  0.03056577  0.00000000       0.002
   0.04075436  0.03056577  0.00000000       0.002
   0.05094295  0.03056577  0.00000000       0.002
  -0.04075436  0.03056577  0.00000000       0.002
  -0.03056577  0.03056577  0.00000000       0.002
  -0.02037718  0.03056577  0.00000000       0.002
  -0.01018859  0.03056577  0.00000000       0.002
   0.00000000  0.04075436  0.00000000       0.002
   0.01018859  0.04075436  0.00000000       0.002
   0.02037718  0.04075436  0.00000000       0.002
   0.03056577  0.04075436  0.00000000       0.002
   0.04075436  0.04075436  0.00000000       0.002
   0.05094295  0.04075436  0.00000000       0.002
  -0.04075436  0.04075436  0.00000000       0.002
  -0.03056577  0.04075436  0.00000000       0.002
  -0.02037718  0.04075436  0.00000000       0.002
  -0.01018859  0.04075436  0.00000000       0.002
   0.00000000  0.05094295  0.00000000       0.001
   0.01018859  0.05094295  0.00000000       0.002
   0.02037718  0.05094295  0.00000000       0.002
   0.03056577  0.05094295  0.00000000       0.002
   0.04075436  0.05094295  0.00000000       0.002
   0.05094295  0.05094295  0.00000000       0.001
   0.00000000  0.00000000  0.01018859       0.002
   0.01018859  0.00000000  0.01018859       0.002
   0.02037718  0.00000000  0.01018859       0.002
   0.03056577  0.00000000  0.01018859       0.002
   0.04075436  0.00000000  0.01018859       0.002
   0.05094295  0.00000000  0.01018859       0.002
  -0.04075436  0.00000000  0.01018859       0.002
  -0.03056577  0.00000000  0.01018859       0.002
  -0.02037718  0.00000000  0.01018859       0.002
  -0.01018859  0.00000000  0.01018859       0.002
   0.00000000  0.01018859  0.01018859       0.002
   0.01018859  0.01018859  0.01018859       0.002
   0.02037718  0.01018859  0.01018859       0.002
   0.03056577  0.01018859  0.01018859       0.002
   0.04075436  0.01018859  0.01018859       0.002
   0.05094295  0.01018859  0.01018859       0.002
  -0.04075436  0.01018859  0.01018859       0.002
  -0.03056577  0.01018859  0.01018859       0.002
  -0.02037718  0.01018859  0.01018859       0.002
  -0.01018859  0.01018859  0.01018859       0.002
   0.00000000  0.02037718  0.01018859       0.002
   0.01018859  0.02037718  0.01018859       0.002
   0.02037718  0.02037718  0.01018859       0.002
   0.03056577  0.02037718  0.01018859       0.002
   0.04075436  0.02037718  0.01018859       0.002
   0.05094295  0.02037718  0.01018859       0.002
  -0.04075436  0.02037718  0.01018859       0.002
  -0.03056577  0.02037718  0.01018859       0.002
  -0.02037718  0.02037718  0.01018859       0.002
  -0.01018859  0.02037718  0.01018859       0.002
   0.00000000  0.03056577  0.01018859       0.002
   0.01018859  0.03056577  0.01018859       0.002
   0.02037718  0.03056577  0.01018859       0.002
   0.03056577  0.03056577  0.01018859       0.002
   0.04075436  0.03056577  0.01018859       0.002
   0.05094295  0.03056577  0.01018859       0.002
  -0.04075436  0.03056577  0.01018859       0.002
  -0.03056577  0.03056577  0.01018859       0.002
  -0.02037718  0.03056577  0.01018859       0.002
  -0.01018859  0.03056577  0.01018859       0.002
   0.00000000  0.04075436  0.01018859       0.002
   0.01018859  0.04075436  0.01018859       0.002
   0.02037718  0.04075436  0.01018859       0.002
   0.03056577  0.04075436  0.01018859       0.002
   0.04075436  0.04075436  0.01018859       0.002
   0.05094295  0.04075436  0.01018859       0.002
  -0.04075436  0.04075436  0.01018859       0.002
  -0.03056577  0.04075436  0.01018859       0.002
  -0.02037718  0.04075436  0.01018859       0.002
  -0.01018859  0.04075436  0.01018859       0.002
   0.00000000  0.05094295  0.01018859       0.002
   0.01018859  0.05094295  0.01018859       0.002
   0.02037718  0.05094295  0.01018859       0.002
   0.03056577  0.05094295  0.01018859       0.002
   0.04075436  0.05094295  0.01018859       0.002
   0.05094295  0.05094295  0.01018859       0.002
  -0.04075436  0.05094295  0.01018859       0.002
  -0.03056577  0.05094295  0.01018859       0.002
  -0.02037718  0.05094295  0.01018859       0.002
  -0.01018859  0.05094295  0.01018859       0.002
   0.00000000 -0.04075436  0.01018859       0.002
   0.01018859 -0.04075436  0.01018859       0.002
   0.02037718 -0.04075436  0.01018859       0.002
   0.03056577 -0.04075436  0.01018859       0.002
   0.04075436 -0.04075436  0.01018859       0.002
   0.05094295 -0.04075436  0.01018859       0.002
  -0.04075436 -0.04075436  0.01018859       0.002
  -0.03056577 -0.04075436  0.01018859       0.002
  -0.02037718 -0.04075436  0.01018859       0.002
  -0.01018859 -0.04075436  0.01018859       0.002
   0.00000000 -0.03056577  0.01018859       0.002
   0.01018859 -0.03056577  0.01018859       0.002
   0.02037718 -0.03056577  0.01018859       0.002
   0.03056577 -0.03056577  0.01018859       0.002
   0.04075436 -0.03056577  0.01018859       0.002
   0.05094295 -0.03056577  0.01018859       0.002
  -0.04075436 -0.03056577  0.01018859       0.002
  -0.03056577 -0.03056577  0.01018859       0.002
  -0.02037718 -0.03056577  0.01018859       0.002
  -0.01018859 -0.03056577  0.01018859       0.002
   0.00000000 -0.02037718  0.01018859       0.002
   0.01018859 -0.02037718  0.01018859       0.002
   0.02037718 -0.02037718  0.01018859       0.002
   0.03056577 -0.02037718  0.01018859       0.002
   0.04075436 -0.02037718  0.01018859       0.002
   0.05094295 -0.02037718  0.01018859       0.002
  -0.04075436 -0.02037718  0.01018859       0.002
  -0.03056577 -0.02037718  0.01018859       0.002
  -0.02037718 -0.02037718  0.01018859       0.002
  -0.01018859 -0.02037718  0.01018859       0.002
   0.00000000 -0.01018859  0.01018859       0.002
   0.01018859 -0.01018859  0.01018859       0.002
   0.02037718 -0.01018859  0.01018859       0.002
   0.03056577 -0.01018859  0.01018859       0.002
   0.04075436 -0.01018859  0.01018859       0.002
   0.05094295 -0.01018859  0.01018859       0.002
  -0.04075436 -0.01018859  0.01018859       0.002
  -0.03056577 -0.01018859  0.01018859       0.002
  -0.02037718 -0.01018859  0.01018859       0.002
  -0.01018859 -0.01018859  0.01018859       0.002
   0.00000000  0.00000000  0.02037718       0.002
   0.01018859  0.00000000  0.02037718       0.002
   0.02037718  0.00000000  0.02037718       0.002
   0.03056577  0.00000000  0.02037718       0.002
   0.04075436  0.00000000  0.02037718       0.002
   0.05094295  0.00000000  0.02037718       0.002
  -0.04075436  0.00000000  0.02037718       0.002
  -0.03056577  0.00000000  0.02037718       0.002
  -0.02037718  0.00000000  0.02037718       0.002
  -0.01018859  0.00000000  0.02037718       0.002
   0.00000000  0.01018859  0.02037718       0.002
   0.01018859  0.01018859  0.02037718       0.002
   0.02037718  0.01018859  0.02037718       0.002
   0.03056577  0.01018859  0.02037718       0.002
   0.04075436  0.01018859  0.02037718       0.002
   0.05094295  0.01018859  0.02037718       0.002
  -0.04075436  0.01018859  0.02037718       0.002
  -0.03056577  0.01018859  0.02037718       0.002
  -0.02037718  0.01018859  0.02037718       0.002
  -0.01018859  0.01018859  0.02037718       0.002
   0.00000000  0.02037718  0.02037718       0.002
   0.01018859  0.02037718  0.02037718       0.002
   0.02037718  0.02037718  0.02037718       0.002
   0.03056577  0.02037718  0.02037718       0.002
   0.04075436  0.02037718  0.02037718       0.002
   0.05094295  0.02037718  0.02037718       0.002
  -0.04075436  0.02037718  0.02037718       0.002
  -0.03056577  0.02037718  0.02037718       0.002
  -0.02037718  0.02037718  0.02037718       0.002
  -0.01018859  0.02037718  0.02037718       0.002
   0.00000000  0.03056577  0.02037718       0.002
   0.01018859  0.03056577  0.02037718       0.002
   0.02037718  0.03056577  0.02037718       0.002
   0.03056577  0.03056577  0.02037718       0.002
   0.04075436  0.03056577  0.02037718       0.002
   0.05094295  0.03056577  0.02037718       0.002
  -0.04075436  0.03056577  0.02037718       0.002
  -0.03056577  0.03056577  0.02037718       0.002
  -0.02037718  0.03056577  0.02037718       0.002
  -0.01018859  0.03056577  0.02037718       0.002
   0.00000000  0.04075436  0.02037718       0.002
   0.01018859  0.04075436  0.02037718       0.002
   0.02037718  0.04075436  0.02037718       0.002
   0.03056577  0.04075436  0.02037718       0.002
   0.04075436  0.04075436  0.02037718       0.002
   0.05094295  0.04075436  0.02037718       0.002
  -0.04075436  0.04075436  0.02037718       0.002
  -0.03056577  0.04075436  0.02037718       0.002
  -0.02037718  0.04075436  0.02037718       0.002
  -0.01018859  0.04075436  0.02037718       0.002
   0.00000000  0.05094295  0.02037718       0.002
   0.01018859  0.05094295  0.02037718       0.002
   0.02037718  0.05094295  0.02037718       0.002
   0.03056577  0.05094295  0.02037718       0.002
   0.04075436  0.05094295  0.02037718       0.002
   0.05094295  0.05094295  0.02037718       0.002
  -0.04075436  0.05094295  0.02037718       0.002
  -0.03056577  0.05094295  0.02037718       0.002
  -0.02037718  0.05094295  0.02037718       0.002
  -0.01018859  0.05094295  0.02037718       0.002
   0.00000000 -0.04075436  0.02037718       0.002
   0.01018859 -0.04075436  0.02037718       0.002
   0.02037718 -0.04075436  0.02037718       0.002
   0.03056577 -0.04075436  0.02037718       0.002
   0.04075436 -0.04075436  0.02037718       0.002
   0.05094295 -0.04075436  0.02037718       0.002
  -0.04075436 -0.04075436  0.02037718       0.002
  -0.03056577 -0.04075436  0.02037718       0.002
  -0.02037718 -0.04075436  0.02037718       0.002
  -0.01018859 -0.04075436  0.02037718       0.002
   0.00000000 -0.03056577  0.02037718       0.002
   0.01018859 -0.03056577  0.02037718       0.002
   0.02037718 -0.03056577  0.02037718       0.002
   0.03056577 -0.03056577  0.02037718       0.002
   0.04075436 -0.03056577  0.02037718       0.002
   0.05094295 -0.03056577  0.02037718       0.002
  -0.04075436 -0.03056577  0.02037718       0.002
  -0.03056577 -0.03056577  0.02037718       0.002
  -0.02037718 -0.03056577  0.02037718       0.002
  -0.01018859 -0.03056577  0.02037718       0.002
   0.00000000 -0.02037718  0.02037718       0.002
   0.01018859 -0.02037718  0.02037718       0.002
   0.02037718 -0.02037718  0.02037718       0.002
   0.03056577 -0.02037718  0.02037718       0.002
   0.04075436 -0.02037718  0.02037718       0.002
   0.05094295 -0.02037718  0.02037718       0.002
  -0.04075436 -0.02037718  0.02037718       0.002
  -0.03056577 -0.02037718  0.02037718       0.002
  -0.02037718 -0.02037718  0.02037718       0.002
  -0.01018859 -0.02037718  0.02037718       0.002
   0.00000000 -0.01018859  0.02037718       0.002
   0.01018859 -0.01018859  0.02037718       0.002
   0.02037718 -0.01018859  0.02037718       0.002
   0.03056577 -0.01018859  0.02037718       0.002
   0.04075436 -0.01018859  0.02037718       0.002
   0.05094295 -0.01018859  0.02037718       0.002
  -0.04075436 -0.01018859  0.02037718       0.002
  -0.03056577 -0.01018859  0.02037718       0.002
  -0.02037718 -0.01018859  0.02037718       0.002
  -0.01018859 -0.01018859  0.02037718       0.002
   0.00000000  0.00000000  0.03056577       0.002
   0.01018859  0.00000000  0.03056577       0.002
   0.02037718  0.00000000  0.03056577       0.002
   0.03056577  0.00000000  0.03056577       0.002
   0.04075436  0.00000000  0.03056577       0.002
   0.05094295  0.00000000  0.03056577       0.002
  -0.04075436  0.00000000  0.03056577       0.002
  -0.03056577  0.00000000  0.03056577       0.002
  -0.02037718  0.00000000  0.03056577       0.002
  -0.01018859  0.00000000  0.03056577       0.002
   0.00000000  0.01018859  0.03056577       0.002
   0.01018859  0.01018859  0.03056577       0.002
   0.02037718  0.01018859  0.03056577       0.002
   0.03056577  0.01018859  0.03056577       0.002
   0.04075436  0.01018859  0.03056577       0.002
   0.05094295  0.01018859  0.03056577       0.002
  -0.04075436  0.01018859  0.03056577       0.002
  -0.03056577  0.01018859  0.03056577       0.002
  -0.02037718  0.01018859  0.03056577       0.002
  -0.01018859  0.01018859  0.03056577       0.002
   0.00000000  0.02037718  0.03056577       0.002
   0.01018859  0.02037718  0.03056577       0.002
   0.02037718  0.02037718  0.03056577       0.002
   0.03056577  0.02037718  0.03056577       0.002
   0.04075436  0.02037718  0.03056577       0.002
   0.05094295  0.02037718  0.03056577       0.002
  -0.04075436  0.02037718  0.03056577       0.002
  -0.03056577  0.02037718  0.03056577       0.002
  -0.02037718  0.02037718  0.03056577       0.002
  -0.01018859  0.02037718  0.03056577       0.002
   0.00000000  0.03056577  0.03056577       0.002
   0.01018859  0.03056577  0.03056577       0.002
   0.02037718  0.03056577  0.03056577       0.002
   0.03056577  0.03056577  0.03056577       0.002
   0.04075436  0.03056577  0.03056577       0.002
   0.05094295  0.03056577  0.03056577       0.002
  -0.04075436  0.03056577  0.03056577       0.002
  -0.03056577  0.03056577  0.03056577       0.002
  -0.02037718  0.03056577  0.03056577       0.002
  -0.01018859  0.03056577  0.03056577       0.002
   0.00000000  0.04075436  0.03056577       0.002
   0.01018859  0.04075436  0.03056577       0.002
   0.02037718  0.04075436  0.03056577       0.002
   0.03056577  0.04075436  0.03056577       0.002
   0.04075436  0.04075436  0.03056577       0.002
   0.05094295  0.04075436  0.03056577       0.002
  -0.04075436  0.04075436  0.03056577       0.002
  -0.03056577  0.04075436  0.03056577       0.002
  -0.02037718  0.04075436  0.03056577       0.002
  -0.01018859  0.04075436  0.03056577       0.002
   0.00000000  0.05094295  0.03056577       0.002
   0.01018859  0.05094295  0.03056577       0.002
   0.02037718  0.05094295  0.03056577       0.002
   0.03056577  0.05094295  0.03056577       0.002
   0.04075436  0.05094295  0.03056577       0.002
[...]
   -.940E+02 -.490E+01 -.781E+01   0.134E+03 0.496E+01 0.677E+01   -.396E+02 -.208E+01 0.666E+01   0.104E-02 0.124E-02 0.240E-02
   -.897E+02 0.688E+02 0.487E+02   0.981E+02 -.999E+02 -.489E+02   -.820E+01 0.338E+02 -.786E+00   -.534E-04 0.233E-03 0.561E-03
   0.537E+02 -.896E+02 -.683E+01   -.914E+02 0.861E+02 -.114E+01   0.361E+02 0.797E+00 0.735E+01   -.602E-03 -.181E-02 0.157E-02
   -.827E+01 0.251E+02 -.503E+02   0.276E+02 -.206E+02 0.811E+02   -.204E+02 -.518E+01 -.337E+02   0.431E-03 -.181E-02 0.181E-02
   -.425E+01 -.177E+02 -.492E+02   0.120E+02 0.499E+02 0.495E+02   -.815E+01 -.306E+02 -.931E+00   0.617E-04 -.370E-03 0.447E-04
   -.427E+01 0.595E+02 0.572E+02   0.334E+02 -.656E+02 -.554E+02   -.336E+02 0.653E+01 -.173E+01   0.248E-03 -.927E-03 0.107E-02
   0.588E+01 -.309E+01 0.136E+02   -.758E+01 0.225E+02 -.495E+02   0.222E+01 -.208E+02 0.384E+02   0.301E-03 0.151E-02 0.268E-03
   0.104E+03 0.332E+02 0.112E+02   -.102E+03 -.421E+02 -.407E+02   -.428E+01 0.464E+01 0.284E+02   -.434E-03 -.575E-03 -.164E-02
   0.319E+02 0.472E+02 0.174E+02   -.251E+02 -.793E+02 -.276E+02   -.621E+01 0.294E+02 0.800E+01   0.654E-03 0.250E-02 0.161E-03
   -.331E+02 0.110E+02 0.699E+02   0.463E+02 -.178E+02 -.104E+03   -.126E+02 0.737E+01 0.353E+02   0.140E-02 0.121E-03 -.127E-02
   -.578E+02 0.351E+02 -.700E+02   0.498E+02 -.762E+02 0.988E+02   0.679E+01 0.387E+02 -.302E+02   0.417E-04 -.343E-02 0.342E-02
   -.119E+02 -.340E+02 -.759E+02   -.129E+02 0.244E+02 0.692E+02   0.274E+02 0.103E+02 0.746E+01   -.177E-03 0.917E-03 -.129E-02
   0.228E+01 0.520E+02 0.388E+02   -.310E+02 -.791E+02 -.476E+02   0.230E+02 0.284E+02 0.687E+01   -.200E-02 0.399E-03 -.122E-02
   -.393E+02 -.496E+02 0.774E+02   0.587E+02 0.869E+02 -.855E+02   -.204E+02 -.369E+02 0.832E+01   -.738E-03 0.242E-02 0.121E-02
   0.236E+02 -.686E+02 0.118E+02   -.289E+02 0.770E+02 -.126E+02   0.427E+01 -.762E+01 0.752E+00   0.183E-03 -.202E-03 -.291E-03
   -.433E+02 -.176E+02 0.193E+02   0.460E+02 0.173E+02 -.202E+02   -.433E+01 -.893E+00 0.208E+01   -.875E-05 -.127E-03 -.229E-03
   0.448E+02 0.115E+02 0.615E+02   -.498E+02 -.133E+02 -.687E+02   0.479E+01 0.979E+00 0.663E+01   0.134E-03 0.158E-03 0.346E-03
   0.850E+01 0.409E+02 -.352E+02   -.947E+01 -.446E+02 0.375E+02   0.732E+00 0.525E+01 -.379E+01   0.243E-04 0.327E-03 -.161E-05
   0.146E+02 0.535E+02 -.843E+01   -.169E+02 -.594E+02 0.768E+01   0.269E+01 0.642E+01 0.380E+00   -.121E-04 0.247E-03 -.268E-04
   -.557E+02 -.174E+01 -.381E+02   0.655E+02 0.228E+01 0.431E+02   -.761E+01 -.121E+01 -.432E+01   -.170E-03 0.592E-04 -.206E-03
   -.498E+02 -.329E+02 0.117E+02   0.548E+02 0.334E+02 -.110E+02   -.638E+01 -.153E+01 0.241E+00   -.332E-03 -.193E-03 0.240E-03
   0.264E+02 0.114E+02 -.382E+02   -.279E+02 -.122E+02 0.420E+02   0.265E+01 0.174E+01 -.533E+01   0.582E-04 0.169E-04 0.812E-04
   0.459E+02 0.116E+02 0.434E+02   -.491E+02 -.114E+02 -.489E+02   0.438E+01 0.193E+00 0.559E+01   0.835E-04 -.395E-04 0.218E-03
   0.193E+02 0.560E+02 -.290E+02   -.211E+02 -.644E+02 0.346E+02   0.240E+01 0.695E+01 -.434E+01   -.276E-05 0.654E-05 -.492E-04
   0.317E+02 -.563E+02 0.470E+02   -.365E+02 0.635E+02 -.522E+02   0.381E+01 -.638E+01 0.494E+01   0.123E-04 -.444E-04 0.243E-03
   0.316E+02 0.140E+02 -.328E+02   -.340E+02 -.164E+02 0.334E+02   0.319E+01 0.325E+01 -.250E+01   -.254E-05 0.125E-03 -.207E-03
   0.466E+02 0.170E+02 -.499E+02   -.515E+02 -.183E+02 0.557E+02   0.487E+01 0.177E+01 -.603E+01   -.428E-04 -.319E-04 -.192E-03
   -.338E+02 0.644E+02 -.563E+01   0.434E+02 -.772E+02 0.390E+01   -.606E+01 0.888E+01 0.849E+00   -.141E-03 -.454E-05 -.476E-04
   0.633E+02 -.335E+02 0.321E+02   -.746E+02 0.404E+02 -.372E+02   0.836E+01 -.465E+01 0.394E+01   0.127E-03 -.156E-03 -.251E-04
   -.130E+02 -.230E+02 -.336E+02   0.137E+02 0.247E+02 0.364E+02   -.179E+01 -.211E+01 -.477E+01   -.930E-04 -.313E-03 -.136E-03
   0.264E+02 -.318E+02 0.486E+01   -.270E+02 0.336E+02 -.532E+01   0.115E+01 -.452E+01 0.567E+00   0.229E-03 -.283E-03 -.212E-03
   0.499E+02 0.303E+02 -.623E+02   -.524E+02 -.323E+02 0.666E+02   0.318E+01 0.318E+01 -.543E+01   0.205E-03 0.355E-03 -.464E-03
   0.151E+02 -.165E+01 0.532E+02   -.182E+02 0.143E+01 -.619E+02   0.286E+01 -.572E+00 0.758E+01   0.169E-04 -.391E-04 0.400E-04
   -.181E+02 -.635E+02 -.192E+02   0.203E+02 0.698E+02 0.198E+02   -.149E+01 -.685E+01 -.102E+00   -.729E-04 -.225E-03 -.186E-03
   0.732E+02 0.158E+02 0.519E+01   -.861E+02 -.188E+02 -.750E+01   0.975E+01 0.201E+01 0.142E+01   0.364E-03 -.120E-03 0.114E-03
   -.220E+02 -.509E+02 0.429E+02   0.247E+02 0.569E+02 -.498E+02   -.217E+01 -.525E+01 0.636E+01   0.517E-04 -.373E-03 0.456E-03
   -.163E+02 0.637E+02 0.446E+01   0.195E+02 -.742E+02 -.598E+01   -.203E+01 0.859E+01 0.139E+01   0.217E-06 0.181E-03 0.133E-03
   0.540E+02 0.190E+02 -.513E+01   -.602E+02 -.186E+02 0.642E+01   0.651E+01 0.129E+01 -.112E+01   0.783E-04 0.191E-03 0.786E-04
   0.170E+02 -.131E+02 -.493E+02   -.210E+02 0.158E+02 0.554E+02   0.317E+01 -.216E+01 -.648E+01   -.705E-04 -.129E-04 -.375E-03
   -.340E+02 0.346E+02 -.272E+02   0.376E+02 -.376E+02 0.281E+02   -.371E+01 0.398E+01 -.245E+01   -.113E-03 0.131E-03 -.319E-03
   -.244E+02 -.704E+02 0.142E+02   0.260E+02 0.781E+02 -.154E+02   -.115E+01 -.760E+01 0.154E+01   -.134E-03 -.351E-03 0.215E-03
   0.391E+02 0.102E+02 -.365E+00   -.412E+02 -.106E+02 0.406E+00   0.467E+01 -.141E+00 0.683E+00   0.378E-04 -.901E-04 0.167E-03
   -.319E+01 0.253E+02 -.316E+02   0.347E+01 -.267E+02 0.334E+02   -.494E+00 0.165E+01 -.410E+01   0.658E-04 0.122E-03 -.525E-03
   0.277E+02 -.487E+02 -.148E+02   -.288E+02 0.527E+02 0.156E+02   0.219E+01 -.499E+01 -.199E+01   0.139E-03 0.108E-03 -.281E-03
   0.905E+01 -.323E+02 0.250E+02   -.838E+01 0.340E+02 -.278E+02   -.333E+00 -.263E+01 0.451E+01   0.190E-03 -.236E-03 -.904E-04
   0.680E+02 -.244E+02 -.512E+02   -.781E+02 0.286E+02 0.601E+02   0.717E+01 -.278E+01 -.683E+01   0.263E-03 -.205E-03 -.394E-03
   0.680E+02 0.413E+01 0.195E+02   -.775E+02 -.508E+01 -.236E+02   0.804E+01 0.649E+00 0.305E+01   0.210E-03 -.237E-03 -.216E-03
   0.223E+01 -.653E+02 -.115E+02   -.178E+00 0.741E+02 0.135E+02   -.101E+01 -.793E+01 -.199E+01   0.119E-03 -.358E-03 -.244E-03
   0.123E+02 0.117E+02 -.469E+02   -.123E+02 -.113E+02 0.475E+02   0.159E+01 0.860E+00 -.405E+01   0.140E-03 0.232E-03 0.255E-03
   0.453E+02 -.101E+02 0.367E+02   -.548E+02 0.129E+02 -.437E+02   0.756E+01 -.201E+01 0.527E+01   0.370E-03 0.226E-03 0.376E-03
   -.311E+02 -.292E+02 0.406E+02   0.309E+02 0.300E+02 -.404E+02   -.253E+01 -.316E+01 0.220E+01   -.108E-03 -.238E-03 0.140E-03
   0.221E+02 -.423E+01 -.168E+02   -.228E+02 0.511E+01 0.181E+02   0.338E+01 -.922E+00 -.262E+01   0.914E-04 -.117E-03 0.256E-04
   -.515E+02 -.662E+02 -.324E+02   0.608E+02 0.742E+02 0.361E+02   -.707E+01 -.629E+01 -.296E+01   -.291E-04 -.177E-03 0.311E-03
   -.206E+02 0.265E+02 0.916E+00   0.223E+02 -.298E+02 -.184E+01   -.235E+01 0.457E+01 0.873E+00   0.257E-05 -.345E-03 0.235E-03
   0.570E+02 0.132E+02 0.131E+02   -.628E+02 -.149E+02 -.125E+02   0.610E+01 0.124E+01 0.872E+00   0.247E-03 -.244E-03 0.275E-03
   -.365E+01 0.148E+02 0.576E+02   0.527E+01 -.150E+02 -.625E+02   -.100E+01 0.919E+00 0.623E+01   0.215E-04 -.205E-03 0.328E-03
   0.461E+02 0.206E+02 -.651E+01   -.521E+02 -.221E+02 0.748E+01   0.646E+01 0.138E+01 -.781E+00   0.608E-04 -.637E-04 0.299E-04
   -.363E+02 0.476E+02 -.143E+02   0.414E+02 -.552E+02 0.149E+02   -.489E+01 0.648E+01 0.165E-01   0.493E-04 -.200E-04 0.316E-04
   0.363E+02 0.168E+02 0.514E+02   -.372E+02 -.168E+02 -.523E+02   0.349E+01 0.822E-01 0.376E+01   0.174E-03 -.123E-03 0.283E-03
   0.291E+02 -.401E+01 -.225E+02   -.294E+02 0.418E+01 0.229E+02   0.236E+01 -.433E+00 -.320E+01   0.208E-03 -.202E-03 -.182E-04
   0.357E+02 0.284E+02 -.318E+02   -.403E+02 -.295E+02 0.338E+02   0.498E+01 0.205E+01 -.343E+01   0.173E-03 0.363E-03 0.376E-04
   -.480E+02 0.696E+01 -.539E+02   0.524E+02 -.785E+01 0.576E+02   -.482E+01 0.120E+01 -.494E+01   -.150E-03 0.176E-03 -.276E-04
   -.148E+02 -.486E+02 -.263E+02   0.191E+02 0.574E+02 0.328E+02   -.390E+01 -.702E+01 -.390E+01   -.479E-04 0.178E-04 -.315E-03
   0.560E+02 0.419E+02 -.300E+02   -.574E+02 -.432E+02 0.316E+02   0.344E+01 0.400E+01 -.281E+01   0.109E-03 0.100E-03 -.370E-03
   0.350E+02 -.446E+01 -.596E+02   -.398E+02 0.772E+01 0.704E+02   0.335E+01 -.167E+01 -.854E+01   0.369E-04 0.415E-03 0.237E-03
   -.526E+01 -.449E+02 0.454E+02   0.798E+01 0.525E+02 -.514E+02   -.205E+01 -.613E+01 0.581E+01   0.893E-04 0.311E-03 -.118E-03
   -.260E+02 -.195E+02 -.534E+02   0.294E+02 0.221E+02 0.574E+02   -.290E+01 -.263E+01 -.562E+01   -.615E-04 -.566E-04 -.466E-03
   0.457E+02 0.601E+01 -.914E+01   -.519E+02 -.733E+01 0.116E+02   0.611E+01 0.781E+00 -.283E+01   0.391E-03 0.102E-03 -.171E-03
   -.409E-01 -.144E+02 0.512E+02   -.188E+01 0.139E+02 -.580E+02   0.128E+01 -.135E+01 0.658E+01   0.108E-03 -.344E-03 0.346E-03
   -.394E+02 -.716E+02 -.276E+01   0.449E+02 0.850E+02 0.435E+01   -.341E+01 -.942E+01 0.245E+00   -.381E-05 -.385E-03 0.409E-03
   -.958E+01 -.431E+01 0.576E+01   0.930E+01 0.448E+01 -.577E+01   -.116E+01 0.550E+00 0.175E+01   -.117E-03 0.105E-03 -.121E-03
   -.380E+02 -.385E+02 -.596E+02   0.392E+02 0.397E+02 0.614E+02   -.284E+01 -.296E+01 -.419E+01   -.197E-03 -.903E-05 -.391E-03
   0.858E+01 -.380E+02 0.123E+02   -.981E+01 0.408E+02 -.126E+02   0.234E+01 -.486E+01 0.495E+00   -.756E-04 -.244E-03 -.150E-03
   -.828E+02 -.129E+01 -.145E+02   0.977E+02 0.269E+01 0.197E+02   -.102E+02 -.675E+00 -.310E+01   -.298E-03 -.151E-04 -.121E-03
   0.538E+02 0.577E+01 0.254E+00   -.602E+02 -.590E+01 0.103E+00   0.721E+01 0.595E+00 -.576E+00   0.105E-03 0.273E-03 0.149E-03
   -.250E+02 0.562E+02 0.568E+01   0.281E+02 -.646E+02 -.514E+01   -.293E+01 0.775E+01 -.563E+00   -.202E-03 0.397E-03 0.185E-03
 -----------------------------------------------------------------------------------------------
   0.227E+03 -.100E+03 -.134E+03   -.234E-12 0.128E-12 -.174E-12   -.227E+03 0.100E+03 0.134E+03   0.479E-02 -.594E-02 0.795E-03
 
 
 POSITION                                       TOTAL-FORCE (eV/Angst)
 -----------------------------------------------------------------------------------
      5.69341      3.77490      1.28080         2.921071      0.130946     -1.048164
      1.24440      7.95647      5.96829         0.175755     -1.528735      1.591466
      0.84765      5.52625      7.38332        -2.361296     -0.016255     -0.114782
      0.68475      3.76007      3.99921         0.078412     -0.121904      0.582926
      7.34822      0.18288      6.86419        -1.135659      0.543647     -1.679551
      7.06967      3.85530      7.43344         0.348398     -1.642948      2.011364
      5.63879      1.87556      7.75932        -4.150653      3.630907      1.808870
      0.13454      2.09568      1.80300         4.051630     -1.593014      2.904091
      2.74678      8.41872      9.59909        -1.457549      1.498070      0.940515
      8.24363      3.85368      0.21705        -0.595917      1.688640      0.282307
      2.67274      2.08845      6.92684         2.170196      0.231132      0.923428
      9.45128      3.24802      6.58723        -1.248637      0.232599     -0.012586
      7.13410      8.01310      8.55200         0.649789     -1.865580      1.619232
      6.64275      0.43076      4.26413        -3.569048      0.748359     -1.113242
      3.39393      5.98584      8.34537        -1.998560      1.074756      3.905896
      2.27545      1.34649      9.33074         2.624228     -0.722119     -3.042716
      4.57553      1.38007      0.90302         0.513036     -0.393622      0.776109
      6.70565      6.41553      4.11096         0.489607     -2.003260      5.600464
      8.28370      9.31400      2.32889         0.206046      2.674568     -0.960402
      3.35429      3.56444      4.31933        -1.572835     -2.656515     -0.638358
      4.05316      1.16593      3.72060        -1.116323     -0.614479     -2.893171
      0.03798      0.45249      6.19075        -0.439521      1.603662     -0.664913
      1.42618      0.35638      3.66375        -4.443136      0.375398      0.090352
      3.66890      8.18084      4.90610         0.538391     -1.371721      2.590902
      3.47044      5.33450      1.10671        -2.825378     -4.248290     -1.066869
      4.56969      7.21490      2.57170         0.606596     -2.821290     -2.176237
      5.44539      6.40043      6.98767         0.613899      0.585375      0.840793
      6.25553      3.49959      3.91328        -1.206306     -2.370150     -1.397468
      9.17293      6.41499      9.34168         2.533339      0.726783      0.806899
      5.90715      8.93706      0.96479        -5.710942      1.269384     -1.867426
      9.53855      6.52453      3.92067        -1.071753      0.333493      0.214888
      5.24039      4.61413      1.19475        -1.021242      0.742991     -0.081654
      6.65914      3.99341      0.80380        -1.562207     -1.201055      1.110400
      0.66679      7.82420      5.18790        -0.208116     -0.807012     -0.497676
      1.11238      7.11586      6.56261        -0.237955      1.530811     -1.458276
      0.48206      4.57660      7.35129         0.417589      0.486569     -0.366924
      1.66702      5.63221      7.86297         2.210529     -0.683890      0.678153
      1.69144      3.99380      3.99953        -1.387750     -1.022178      0.912927
      0.28687      3.46257      4.92000         1.168957      0.941828     -1.521433
      6.70939      0.14473      6.07587         1.224821      0.463741      0.094280
      7.06500      9.21229      7.34626         0.565676     -1.434511      1.209502
      6.64375      4.52762      6.90823        -0.955073      0.827978     -0.259219
      6.38235      3.18345      7.91153         0.831207      0.922189     -1.866184
      5.04303      1.64357      8.50952        -0.067904      0.457807     -0.231188
      6.13958      1.12815      7.70246         3.541510     -3.856109     -0.875708
      9.20694      2.51800      1.47570        -2.866347      2.194699     -1.201001
      0.45143      2.53668      2.73470        -1.118261     -0.440690     -1.974261
      2.44314      9.48704      9.50920         0.562355     -2.764437      0.104089
      2.26919      7.98539      0.56951         0.709807      1.256941     -1.146071
      7.89475      3.92357      9.12065        -0.274146     -0.796815     -1.130084
      8.45135      4.84963      0.23024         0.709040     -0.494988      0.525586
      1.77759      1.92007      6.78587        -3.173042     -1.040407     -0.893799
      2.89745      2.69390      6.20671         0.593468      0.715930     -0.539368
      9.67949      2.33456      6.44138         1.178294     -1.918556     -0.130611
      8.45898      3.04399      6.75631         0.393171      1.685311      0.167031
      6.72474      8.29563      9.41120        -0.774034      0.581226     -0.363236
      7.78660      7.31400      8.99033        -0.093252      0.981791     -1.522317
      6.78400      1.39181      4.06378         0.412262      0.035599      0.358283
      5.54033      0.49125      4.08068         2.572424     -0.519873      0.717200
      3.51119      5.59600      9.38387        -0.208987      0.308797     -2.237819
      2.98292      6.89567      8.71890         1.117566     -1.043896     -1.159991
      2.31190      1.89212      8.40759         0.331628     -0.929767      1.796325
      1.62937      1.61000      0.11104        -2.949237      1.398019      2.081759
      3.67623      1.31914      0.57074        -1.394185     -0.298793     -1.002066
      4.67554      2.32127      1.13716         1.037330      0.850769     -0.036310
      6.25646      6.17933      5.14655         1.596191      1.258341     -3.467265
      5.94222      6.60875      3.60357        -1.903537      0.770891     -1.724485
      8.87115      0.31947      1.81317        -2.713194     -2.356522      2.352049
      7.43260      9.64035      2.98448         2.723764     -0.038352     -1.269679
      4.01834      4.14611      4.59513         2.232807      1.708465      0.700646
      3.83197      2.62509      4.13254        -0.679887      1.324180     -0.060347
      3.04247      0.96249      3.57070         0.289003     -0.471110      1.473146
      4.21407      1.03089      2.70110         0.621702      0.652724      1.382802
      8.86757      0.21482      6.30956         0.540096     -0.109128      0.183075
      0.60458      9.47575      6.18538         0.218305     -1.066420      0.614929
      0.66531      0.34916      2.85995         2.577396      0.112861      2.860044
      0.73409      0.48054      4.58582         2.055804     -0.249308     -2.724594
      2.87065      7.83505      5.47039         0.331537      0.966538     -1.450032
      4.36496      8.00149      5.62776        -0.450397      0.313949     -1.276954
      3.86943      6.07039      1.55191         0.488956      1.836380      2.537957
      2.86152      4.64244      1.64468         2.115671      2.693115     -1.206832
      4.23256      7.41086      3.42653        -1.410410      1.595011      2.214046
      4.78201      7.91912      1.95522         0.663696      1.461183     -0.216283
      5.87131      6.78634      7.83316         0.477272     -0.005129     -1.553247
      4.54079      6.28376      7.41599        -0.066442     -0.546715     -0.411458
      6.06310      3.70046      2.93634        -0.654676     -1.811205     -0.221283
      6.57129      4.36250      3.89479         2.102062      3.901413      1.839316
      0.06967      6.07391      8.42980        -1.419942      0.702877      1.705859
      9.72118      6.95096      0.27035        -1.589610     -1.676900     -2.384615
      5.47127      0.09789      0.87801         1.114542     -2.079558      0.199800
      6.76999      9.01404      1.22859         4.712222      0.721843      2.056092
      8.53897      6.41229      4.00842         0.865433      0.468368     -0.216514
      0.05079      5.61231      3.99488         0.258857     -0.585645     -0.011131
 -----------------------------------------------------------------------------------
    total drift:                               -0.001102      0.016568     -0.006342


--------------------------------------------------------------------------------------------------------



  FREE ENERGIE OF THE ION-ELECTRON SYSTEM (eV)
  ---------------------------------------------------
  free  energy   TOTEN  =      -449.75311025 eV

  energy  without entropy=     -449.75311025  energy(sigma->0) =     -449.75311025
 


--------------------------------------------------------------------------------------------------------


    POTLOK:  cpu time    0.0183: real time    0.0193


--------------------------------------------------------------------------------------------------------


     LOOP+:  cpu time 1430.6780: real time 1444.1529
    4ORBIT:  cpu time    0.0000: real time    0.0000

 total amount of memory used by VASP MPI-rank0   666491. kBytes
=======================================================================

   base      :      30000. kBytes
   nonlr-proj:       2415. kBytes
   fftplans  :       1123. kBytes
   grid      :       1850. kBytes
   one-center:         15. kBytes
   wavefun   :     631088. kBytes
 
  
  
 General timing and accounting informations for this job:
 ========================================================
  
                  Total CPU time used (sec):     1516.073
                            User time (sec):     1510.764
                          System time (sec):        5.308
                         Elapsed time (sec):     1531.405
  
                   Maximum memory used (kb):     1497908.
                   Average memory used (kb):           0.
  
                          Minor page faults:       221578
                          Major page faults:         1609
                 Voluntary context switches:        17763
