<?xml version="1.0" encoding="ISO-8859-1"?>
<modeling>
 <generator>
  <i name="program" type="string">vasp </i>
  <i name="version" type="string">5.4.4.18Apr17-6-g9f103f2a35  </i>
  <i name="subversion" type="string">(build Dec 06 2019 17:20:26) complex            parallel </i>
  <i name="platform" type="string">LinuxIFC </i>
  <i name="date" type="string">2025 07 03 </i>
  <i name="time" type="string">17:37:51 </i>
 </generator>
 <incar>
  <i type="string" name="SYSTEM"> ice</i>
  <i type="int" name="ISTART">     1</i>
  <i type="string" name="PREC">normal</i>
  <i type="string" name="ALGO"> VeryFast</i>
  <i type="int" name="IMIX">     4</i>
  <i type="int" name="MAXMIX">    40</i>
  <i type="int" name="ICHARG">     1</i>
  <i type="int" name="NELM">   500</i>
  <i type="int" name="NELMIN">     4</i>
  <i type="int" name="IBRION">    -1</i>
  <i name="EDIFF">      0.00000100</i>
  <i type="int" name="NSW">     0</i>
  <i type="int" name="ISIF">     2</i>
  <i name="ENCUT">    400.00000000</i>
  <i name="POTIM">      0.50000000</i>
  <i type="string" name="LREAL"> AUTO</i>
  <i type="int" name="ISMEAR">    -1</i>
  <i name="SIGMA">      0.05000000</i>
  <i type="int" name="NWRITE">     0</i>
  <i type="logical" name="LWAVE"> F  </i>
  <i type="logical" name="LCHARG"> F  </i>
  <i type="logical" name="LVTOT"> T  </i>
  <i type="logical" name="LVHAR"> T  </i>
  <v type="int" name="KPOINT_BSE">    -1     0     0     0</v>
  <i type="int" name="NELM">   500</i>
 </incar>
 <structure name="primitive_cell" >
  <crystal>
   <varray name="basis" >
    <v>       9.81490000       0.00000000       0.00000000 </v>
    <v>       0.00000000       9.81490000       0.00000000 </v>
    <v>       0.00000000       0.00000000       9.81490000 </v>
   </varray>
   <i name="volume">    945.49151840 </i>
   <varray name="rec_basis" >
    <v>       0.10188591       0.00000000       0.00000000 </v>
    <v>       0.00000000       0.10188591       0.00000000 </v>
    <v>       0.00000000       0.00000000       0.10188591 </v>
   </varray>
  </crystal>
  <varray name="positions" >
   <v>      -0.41992175       0.38460911       0.13049547 </v>
   <v>      -0.46607811       0.47011483       0.12172819 </v>
   <v>      -0.32152747       0.40687220       0.08189589 </v>
   <v>      -0.38225555       0.37702473       0.29917167 </v>
   <v>       0.47637164       0.23650470       0.11586058 </v>
   <v>       0.46618203       0.14060969       0.09200511 </v>
   <v>      -0.36264964       0.35655891       0.39870809 </v>
   <v>       0.35358893      -0.45648962       0.11275815 </v>
   <v>      -0.16009027       0.39263569       0.02211454 </v>
   <v>      -0.33047815       0.44447727       0.39682422 </v>
   <v>       0.39424039      -0.38151280       0.15811776 </v>
   <v>      -0.19563623       0.39975649      -0.07073378 </v>
   <v>       0.29154856       0.47299922       0.16756972 </v>
   <v>      -0.13892653       0.49410896       0.02345821 </v>
   <v>       0.37455603       0.13440178       0.05815057 </v>
   <v>      -0.34972847       0.32434869      -0.19392658 </v>
   <v>       0.35774078      -0.42984646      -0.04391588 </v>
   <v>      -0.48618631       0.16745662      -0.13299983 </v>
   <v>       0.42935435       0.10503316       0.27520403 </v>
   <v>       0.39042374       0.26745968       0.42104759 </v>
   <v>      -0.39457152      -0.32666150       0.36715300 </v>
   <v>      -0.44255469       0.00997320       0.08945674 </v>
   <v>       0.40941222       0.42243018       0.46817899 </v>
   <v>      -0.06194296       0.25654872       0.15035303 </v>
   <v>      -0.30880600       0.14180583       0.41404192 </v>
   <v>      -0.42548676       0.19109313      -0.20943464 </v>
   <v>       0.34175488       0.36316621       0.44007886 </v>
   <v>       0.46558702      -0.26490336       0.26201999 </v>
   <v>      -0.27970025       0.39280074      -0.24263721 </v>
   <v>       0.41295989       0.11879184       0.37907671 </v>
   <v>      -0.31678876      -0.34634790       0.41884889 </v>
   <v>       0.34579364      -0.39012726      -0.14972440 </v>
   <v>       0.48721943      -0.19315327       0.19920937 </v>
   <v>      -0.43551845       0.05005176       0.41576379 </v>
   <v>      -0.37446332       0.11494259      -0.21522787 </v>
   <v>      -0.32309550       0.46130068      -0.29614871 </v>
   <v>      -0.40179625      -0.30856759      -0.20191138 </v>
   <v>       0.43123822      -0.24493780       0.34911512 </v>
   <v>       0.30998482       0.09806376       0.36380401 </v>
   <v>       0.23183629       0.13718836      -0.04932908 </v>
   <v>      -0.32319738       0.04388817       0.43445476 </v>
   <v>      -0.36255489      -0.37041335      -0.47563908 </v>
   <v>       0.46264251      -0.35977341      -0.24441512 </v>
   <v>       0.01370793       0.21352026       0.18370029 </v>
   <v>      -0.20665519      -0.25480647      -0.08401196 </v>
   <v>      -0.24272280      -0.01778469       0.30407646 </v>
   <v>      -0.39814466      -0.08943963       0.09829820 </v>
   <v>      -0.31023342      -0.08159645       0.12517601 </v>
   <v>      -0.06540790      -0.34640292      -0.04821425 </v>
   <v>       0.23555003       0.19278036      -0.14338506 </v>
   <v>      -0.09615442       0.03254949       0.18473647 </v>
   <v>      -0.12999929      -0.34667801       0.40840151 </v>
   <v>       0.16600984       0.16403631       0.01131341 </v>
   <v>       0.30391751      -0.29742840      -0.11166696 </v>
   <v>       0.17233390       0.40691194       0.40749575 </v>
   <v>      -0.44519149      -0.34788638      -0.28805490 </v>
   <v>      -0.31484376      -0.15479220      -0.04113134 </v>
   <v>       0.04599456       0.25845195       0.27862739 </v>
   <v>      -0.15600770      -0.05103465       0.23728107 </v>
   <v>      -0.27313574      -0.18357803      -0.12867171 </v>
   <v>      -0.13814914       0.31013969      -0.31162722 </v>
   <v>      -0.00954885      -0.29179513       0.02754435 </v>
   <v>       0.00517479      -0.42818470       0.40702198 </v>
   <v>      -0.02815617      -0.33524234       0.39946102 </v>
   <v>       0.27231454       0.21278362      -0.29425262 </v>
   <v>       0.24892154      -0.03340421      -0.03114683 </v>
   <v>       0.00709829      -0.38115416      -0.14112217 </v>
   <v>       0.23119848      -0.18640129       0.05802484 </v>
   <v>       0.16984585      -0.42615717      -0.19887416 </v>
   <v>       0.06976648       0.38309815       0.40746314 </v>
   <v>       0.27985817      -0.14225107      -0.02198759 </v>
   <v>       0.02922760       0.35278709      -0.49872133 </v>
   <v>       0.29520932       0.27447045      -0.36762371 </v>
   <v>      -0.25131993       0.01863340      -0.30063577 </v>
   <v>      -0.03704806       0.33092747      -0.32885409 </v>
   <v>      -0.28017606      -0.06139767      -0.25151963 </v>
   <v>       0.14530764       0.03631010       0.37328450 </v>
   <v>       0.04911532       0.46629105      -0.25100714 </v>
   <v>       0.37380921      -0.16648769       0.49986245 </v>
   <v>       0.06778592       0.03557499       0.29138860 </v>
   <v>      -0.31640771       0.01474585      -0.38095447 </v>
   <v>       0.18111137       0.19562808      -0.30861547 </v>
   <v>       0.44472791      -0.18476092      -0.42661056 </v>
   <v>      -0.01379596       0.23785877      -0.34371415 </v>
   <v>       0.08636349      -0.43695300      -0.24774374 </v>
   <v>       0.29247878      -0.20171882      -0.44264435 </v>
   <v>       0.07479383       0.04896025       0.46723044 </v>
   <v>      -0.09651917       0.02188733      -0.35714475 </v>
   <v>       0.00387014       0.04610266      -0.36924981 </v>
   <v>       0.11333585      -0.27499414      -0.33136252 </v>
   <v>       0.06793650      -0.20282428      -0.47142610 </v>
   <v>       0.12678682      -0.18934783      -0.39191535 </v>
   <v>       0.06159788      -0.03455430      -0.36979694 </v>
  </varray>
 </structure>
 <varray name="primitive_index" >
  <v type="int" >        1 </v>
  <v type="int" >       32 </v>
  <v type="int" >       33 </v>
  <v type="int" >       86 </v>
  <v type="int" >       65 </v>
  <v type="int" >       17 </v>
  <v type="int" >       28 </v>
  <v type="int" >       25 </v>
  <v type="int" >       10 </v>
  <v type="int" >       87 </v>
  <v type="int" >       80 </v>
  <v type="int" >       50 </v>
  <v type="int" >       81 </v>
  <v type="int" >       51 </v>
  <v type="int" >       64 </v>
  <v type="int" >       43 </v>
  <v type="int" >       60 </v>
  <v type="int" >       44 </v>
  <v type="int" >       73 </v>
  <v type="int" >       71 </v>
  <v type="int" >       67 </v>
  <v type="int" >       90 </v>
  <v type="int" >       70 </v>
  <v type="int" >       46 </v>
  <v type="int" >       58 </v>
  <v type="int" >        7 </v>
  <v type="int" >       20 </v>
  <v type="int" >       26 </v>
  <v type="int" >        6 </v>
  <v type="int" >       21 </v>
  <v type="int" >       18 </v>
  <v type="int" >       15 </v>
  <v type="int" >       83 </v>
  <v type="int" >       59 </v>
  <v type="int" >       45 </v>
  <v type="int" >       42 </v>
  <v type="int" >       84 </v>
  <v type="int" >       82 </v>
  <v type="int" >       72 </v>
  <v type="int" >       16 </v>
  <v type="int" >       14 </v>
  <v type="int" >       66 </v>
  <v type="int" >       85 </v>
  <v type="int" >        8 </v>
  <v type="int" >       57 </v>
  <v type="int" >       69 </v>
  <v type="int" >       30 </v>
  <v type="int" >       91 </v>
  <v type="int" >       29 </v>
  <v type="int" >       62 </v>
  <v type="int" >       68 </v>
  <v type="int" >       92 </v>
  <v type="int" >       63 </v>
  <v type="int" >       61 </v>
  <v type="int" >       38 </v>
  <v type="int" >       27 </v>
  <v type="int" >       56 </v>
  <v type="int" >       47 </v>
  <v type="int" >       19 </v>
  <v type="int" >       13 </v>
  <v type="int" >       55 </v>
  <v type="int" >       89 </v>
  <v type="int" >       93 </v>
  <v type="int" >       31 </v>
  <v type="int" >       11 </v>
  <v type="int" >       48 </v>
  <v type="int" >       88 </v>
  <v type="int" >       49 </v>
  <v type="int" >       37 </v>
  <v type="int" >        4 </v>
  <v type="int" >        9 </v>
  <v type="int" >       39 </v>
  <v type="int" >       53 </v>
  <v type="int" >        5 </v>
  <v type="int" >       12 </v>
  <v type="int" >       41 </v>
  <v type="int" >       23 </v>
  <v type="int" >       36 </v>
  <v type="int" >       24 </v>
  <v type="int" >       76 </v>
  <v type="int" >       40 </v>
  <v type="int" >       52 </v>
  <v type="int" >       79 </v>
  <v type="int" >       54 </v>
  <v type="int" >        3 </v>
  <v type="int" >       78 </v>
  <v type="int" >       77 </v>
  <v type="int" >       74 </v>
  <v type="int" >       22 </v>
  <v type="int" >       35 </v>
  <v type="int" >       34 </v>
  <v type="int" >        2 </v>
  <v type="int" >       75 </v>
 </varray>
 <kpoints>
  <generation param="Gamma">
   <v type="int" name="divisions">      10       10       10 </v>
   <v name="usershift">      0.00000000       0.00000000       0.00000000 </v>
   <v name="genvec1">      0.10000000       0.00000000       0.00000000 </v>
   <v name="genvec2">      0.00000000       0.10000000       0.00000000 </v>
   <v name="genvec3">      0.00000000       0.00000000       0.10000000 </v>
   <v name="shift">      0.00000000       0.00000000       0.00000000 </v>
  </generation>
  <varray name="kpointlist" >
   <v>       0.00000000       0.00000000       0.00000000 </v>
   <v>       0.10000000       0.00000000       0.00000000 </v>
   <v>       0.20000000       0.00000000       0.00000000 </v>
   <v>       0.30000000       0.00000000       0.00000000 </v>
   <v>       0.40000000       0.00000000       0.00000000 </v>
   <v>       0.50000000       0.00000000       0.00000000 </v>
   <v>       0.00000000       0.10000000       0.00000000 </v>
   <v>       0.10000000       0.10000000       0.00000000 </v>
   <v>       0.20000000       0.10000000       0.00000000 </v>
   <v>       0.30000000       0.10000000       0.00000000 </v>
   <v>       0.40000000       0.10000000       0.00000000 </v>
   <v>       0.50000000       0.10000000       0.00000000 </v>
   <v>      -0.40000000       0.10000000       0.00000000 </v>
   <v>      -0.30000000       0.10000000       0.00000000 </v>
   <v>      -0.20000000       0.10000000       0.00000000 </v>
   <v>      -0.10000000       0.10000000       0.00000000 </v>
   <v>       0.00000000       0.20000000       0.00000000 </v>
   <v>       0.10000000       0.20000000       0.00000000 </v>
   <v>       0.20000000       0.20000000       0.00000000 </v>
   <v>       0.30000000       0.20000000       0.00000000 </v>
   <v>       0.40000000       0.20000000       0.00000000 </v>
   <v>       0.50000000       0.20000000       0.00000000 </v>
   <v>      -0.40000000       0.20000000       0.00000000 </v>
   <v>      -0.30000000       0.20000000       0.00000000 </v>
   <v>      -0.20000000       0.20000000       0.00000000 </v>
   <v>      -0.10000000       0.20000000       0.00000000 </v>
   <v>       0.00000000       0.30000000       0.00000000 </v>
   <v>       0.10000000       0.30000000       0.00000000 </v>
   <v>       0.20000000       0.30000000       0.00000000 </v>
   <v>       0.30000000       0.30000000       0.00000000 </v>
   <v>       0.40000000       0.30000000       0.00000000 </v>
   <v>       0.50000000       0.30000000       0.00000000 </v>
   <v>      -0.40000000       0.30000000       0.00000000 </v>
   <v>      -0.30000000       0.30000000       0.00000000 </v>
   <v>      -0.20000000       0.30000000       0.00000000 </v>
   <v>      -0.10000000       0.30000000       0.00000000 </v>
   <v>       0.00000000       0.40000000       0.00000000 </v>
   <v>       0.10000000       0.40000000       0.00000000 </v>
   <v>       0.20000000       0.40000000       0.00000000 </v>
   <v>       0.30000000       0.40000000       0.00000000 </v>
   <v>       0.40000000       0.40000000       0.00000000 </v>
   <v>       0.50000000       0.40000000       0.00000000 </v>
   <v>      -0.40000000       0.40000000       0.00000000 </v>
   <v>      -0.30000000       0.40000000       0.00000000 </v>
   <v>      -0.20000000       0.40000000       0.00000000 </v>
   <v>      -0.10000000       0.40000000       0.00000000 </v>
   <v>       0.00000000       0.50000000       0.00000000 </v>
   <v>       0.10000000       0.50000000       0.00000000 </v>
   <v>       0.20000000       0.50000000       0.00000000 </v>
   <v>       0.30000000       0.50000000       0.00000000 </v>
   <v>       0.40000000       0.50000000       0.00000000 </v>
   <v>       0.50000000       0.50000000       0.00000000 </v>
   <v>       0.00000000       0.00000000       0.10000000 </v>
   <v>       0.10000000       0.00000000       0.10000000 </v>
   <v>       0.20000000       0.00000000       0.10000000 </v>
   <v>       0.30000000       0.00000000       0.10000000 </v>
   <v>       0.40000000       0.00000000       0.10000000 </v>
   <v>       0.50000000       0.00000000       0.10000000 </v>
   <v>      -0.40000000       0.00000000       0.10000000 </v>
   <v>      -0.30000000       0.00000000       0.10000000 </v>
   <v>      -0.20000000       0.00000000       0.10000000 </v>
   <v>      -0.10000000       0.00000000       0.10000000 </v>
   <v>       0.00000000       0.10000000       0.10000000 </v>
   <v>       0.10000000       0.10000000       0.10000000 </v>
   <v>       0.20000000       0.10000000       0.10000000 </v>
   <v>       0.30000000       0.10000000       0.10000000 </v>
   <v>       0.40000000       0.10000000       0.10000000 </v>
   <v>       0.50000000       0.10000000       0.10000000 </v>
   <v>      -0.40000000       0.10000000       0.10000000 </v>
   <v>      -0.30000000       0.10000000       0.10000000 </v>
   <v>      -0.20000000       0.10000000       0.10000000 </v>
   <v>      -0.10000000       0.10000000       0.10000000 </v>
   <v>       0.00000000       0.20000000       0.10000000 </v>
   <v>       0.10000000       0.20000000       0.10000000 </v>
   <v>       0.20000000       0.20000000       0.10000000 </v>
   <v>       0.30000000       0.20000000       0.10000000 </v>
   <v>       0.40000000       0.20000000       0.10000000 </v>
   <v>       0.50000000       0.20000000       0.10000000 </v>
   <v>      -0.40000000       0.20000000       0.10000000 </v>
   <v>      -0.30000000       0.20000000       0.10000000 </v>
   <v>      -0.20000000       0.20000000       0.10000000 </v>
   <v>      -0.10000000       0.20000000       0.10000000 </v>
   <v>       0.00000000       0.30000000       0.10000000 </v>
   <v>       0.10000000       0.30000000       0.10000000 </v>
   <v>       0.20000000       0.30000000       0.10000000 </v>
   <v>       0.30000000       0.30000000       0.10000000 </v>
   <v>       0.40000000       0.30000000       0.10000000 </v>
   <v>       0.50000000       0.30000000       0.10000000 </v>
   <v>      -0.40000000       0.30000000       0.10000000 </v>
   <v>      -0.30000000       0.30000000       0.10000000 </v>
   <v>      -0.20000000       0.30000000       0.10000000 </v>
   <v>      -0.10000000       0.30000000       0.10000000 </v>
   <v>       0.00000000       0.40000000       0.10000000 </v>
   <v>       0.10000000       0.40000000       0.10000000 </v>
   <v>       0.20000000       0.40000000       0.10000000 </v>
   <v>       0.30000000       0.40000000       0.10000000 </v>
   <v>       0.40000000       0.40000000       0.10000000 </v>
   <v>       0.50000000       0.40000000       0.10000000 </v>
   <v>      -0.40000000       0.40000000       0.10000000 </v>
   <v>      -0.30000000       0.40000000       0.10000000 </v>
   <v>      -0.20000000       0.40000000       0.10000000 </v>
   <v>      -0.10000000       0.40000000       0.10000000 </v>
   <v>       0.00000000       0.50000000       0.10000000 </v>
   <v>       0.10000000       0.50000000       0.10000000 </v>
   <v>       0.20000000       0.50000000       0.10000000 </v>
   <v>       0.30000000       0.50000000       0.10000000 </v>
   <v>       0.40000000       0.50000000       0.10000000 </v>
   <v>       0.50000000       0.50000000       0.10000000 </v>
   <v>      -0.40000000       0.50000000       0.10000000 </v>
   <v>      -0.30000000       0.50000000       0.10000000 </v>
   <v>      -0.20000000       0.50000000       0.10000000 </v>
   <v>      -0.10000000       0.50000000       0.10000000 </v>
   <v>       0.00000000      -0.40000000       0.10000000 </v>
   <v>       0.10000000      -0.40000000       0.10000000 </v>
   <v>       0.20000000      -0.40000000       0.10000000 </v>
   <v>       0.30000000      -0.40000000       0.10000000 </v>
   <v>       0.40000000      -0.40000000       0.10000000 </v>
   <v>       0.50000000      -0.40000000       0.10000000 </v>
   <v>      -0.40000000      -0.40000000       0.10000000 </v>
   <v>      -0.30000000      -0.40000000       0.10000000 </v>
   <v>      -0.20000000      -0.40000000       0.10000000 </v>
   <v>      -0.10000000      -0.40000000       0.10000000 </v>
   <v>       0.00000000      -0.30000000       0.10000000 </v>
   <v>       0.10000000      -0.30000000       0.10000000 </v>
   <v>       0.20000000      -0.30000000       0.10000000 </v>
   <v>       0.30000000      -0.30000000       0.10000000 </v>
   <v>       0.40000000      -0.30000000       0.10000000 </v>
   <v>       0.50000000      -0.30000000       0.10000000 </v>
   <v>      -0.40000000      -0.30000000       0.10000000 </v>
   <v>      -0.30000000      -0.30000000       0.10000000 </v>
   <v>      -0.20000000      -0.30000000       0.10000000 </v>
   <v>      -0.10000000      -0.30000000       0.10000000 </v>
   <v>       0.00000000      -0.20000000       0.10000000 </v>
   <v>       0.10000000      -0.20000000       0.10000000 </v>
   <v>       0.20000000      -0.20000000       0.10000000 </v>
   <v>       0.30000000      -0.20000000       0.10000000 </v>
   <v>       0.40000000      -0.20000000       0.10000000 </v>
   <v>       0.50000000      -0.20000000       0.10000000 </v>
   <v>      -0.40000000      -0.20000000       0.10000000 </v>
   <v>      -0.30000000      -0.20000000       0.10000000 </v>
   <v>      -0.20000000      -0.20000000       0.10000000 </v>
   <v>      -0.10000000      -0.20000000       0.10000000 </v>
   <v>       0.00000000      -0.10000000       0.10000000 </v>
   <v>       0.10000000      -0.10000000       0.10000000 </v>
   <v>       0.20000000      -0.10000000       0.10000000 </v>
   <v>       0.30000000      -0.10000000       0.10000000 </v>
   <v>       0.40000000      -0.10000000       0.10000000 </v>
   <v>       0.50000000      -0.10000000       0.10000000 </v>
   <v>      -0.40000000      -0.10000000       0.10000000 </v>
   <v>      -0.30000000      -0.10000000       0.10000000 </v>
   <v>      -0.20000000      -0.10000000       0.10000000 </v>
   <v>      -0.10000000      -0.10000000       0.10000000 </v>
   <v>       0.00000000       0.00000000       0.20000000 </v>
   <v>       0.10000000       0.00000000       0.20000000 </v>
   <v>       0.20000000       0.00000000       0.20000000 </v>
   <v>       0.30000000       0.00000000       0.20000000 </v>
   <v>       0.40000000       0.00000000       0.20000000 </v>
   <v>       0.50000000       0.00000000       0.20000000 </v>
   <v>      -0.40000000       0.00000000       0.20000000 </v>
   <v>      -0.30000000       0.00000000       0.20000000 </v>
   <v>      -0.20000000       0.00000000       0.20000000 </v>
   <v>      -0.10000000       0.00000000       0.20000000 </v>
   <v>       0.00000000       0.10000000       0.20000000 </v>
   <v>       0.10000000       0.10000000       0.20000000 </v>
   <v>       0.20000000       0.10000000       0.20000000 </v>
   <v>       0.30000000       0.10000000       0.20000000 </v>
   <v>       0.40000000       0.10000000       0.20000000 </v>
   <v>       0.50000000       0.10000000       0.20000000 </v>
   <v>      -0.40000000       0.10000000       0.20000000 </v>
   <v>      -0.30000000       0.10000000       0.20000000 </v>
   <v>      -0.20000000       0.10000000       0.20000000 </v>
   <v>      -0.10000000       0.10000000       0.20000000 </v>
   <v>       0.00000000       0.20000000       0.20000000 </v>
   <v>       0.10000000       0.20000000       0.20000000 </v>
   <v>       0.20000000       0.20000000       0.20000000 </v>
   <v>       0.30000000       0.20000000       0.20000000 </v>
   <v>       0.40000000       0.20000000       0.20000000 </v>
   <v>       0.50000000       0.20000000       0.20000000 </v>
   <v>      -0.40000000       0.20000000       0.20000000 </v>
   <v>      -0.30000000       0.20000000       0.20000000 </v>
   <v>      -0.20000000       0.20000000       0.20000000 </v>
   <v>      -0.10000000       0.20000000       0.20000000 </v>
   <v>       0.00000000       0.30000000       0.20000000 </v>
   <v>       0.10000000       0.30000000       0.20000000 </v>
   <v>       0.20000000       0.30000000       0.20000000 </v>
   <v>       0.30000000       0.30000000       0.20000000 </v>
   <v>       0.40000000       0.30000000       0.20000000 </v>
   <v>       0.50000000       0.30000000       0.20000000 </v>
   <v>      -0.40000000       0.30000000       0.20000000 </v>
   <v>      -0.30000000       0.30000000       0.20000000 </v>
   <v>      -0.20000000       0.30000000       0.20000000 </v>
   <v>      -0.10000000       0.30000000       0.20000000 </v>
   <v>       0.00000000       0.40000000       0.20000000 </v>
   <v>       0.10000000       0.40000000       0.20000000 </v>
   <v>       0.20000000       0.40000000       0.20000000 </v>
   <v>       0.30000000       0.40000000       0.20000000 </v>
   <v>       0.40000000       0.40000000       0.20000000 </v>
   <v>       0.50000000       0.40000000       0.20000000 </v>
   <v>      -0.40000000       0.40000000       0.20000000 </v>
   <v>      -0.30000000       0.40000000       0.20000000 </v>
   <v>      -0.20000000       0.40000000       0.20000000 </v>
   <v>      -0.10000000       0.40000000       0.20000000 </v>
   <v>       0.00000000       0.50000000       0.20000000 </v>
   <v>       0.10000000       0.50000000       0.20000000 </v>
   <v>       0.20000000       0.50000000       0.20000000 </v>
   <v>       0.30000000       0.50000000       0.20000000 </v>
   <v>       0.40000000       0.50000000       0.20000000 </v>
   <v>       0.50000000       0.50000000       0.20000000 </v>
   <v>      -0.40000000       0.50000000       0.20000000 </v>
   <v>      -0.30000000       0.50000000       0.20000000 </v>
   <v>      -0.20000000       0.50000000       0.20000000 </v>
   <v>      -0.10000000       0.50000000       0.20000000 </v>
   <v>       0.00000000      -0.40000000       0.20000000 </v>
   <v>       0.10000000      -0.40000000       0.20000000 </v>
   <v>       0.20000000      -0.40000000       0.20000000 </v>
   <v>       0.30000000      -0.40000000       0.20000000 </v>
   <v>       0.40000000      -0.40000000       0.20000000 </v>
   <v>       0.50000000      -0.40000000       0.20000000 </v>
   <v>      -0.40000000      -0.40000000       0.20000000 </v>
   <v>      -0.30000000      -0.40000000       0.20000000 </v>
   <v>      -0.20000000      -0.40000000       0.20000000 </v>
   <v>      -0.10000000      -0.40000000       0.20000000 </v>
   <v>       0.00000000      -0.30000000       0.20000000 </v>
   <v>       0.10000000      -0.30000000       0.20000000 </v>
   <v>       0.20000000      -0.30000000       0.20000000 </v>
   <v>       0.30000000      -0.30000000       0.20000000 </v>
   <v>       0.40000000      -0.30000000       0.20000000 </v>
   <v>       0.50000000      -0.30000000       0.20000000 </v>
   <v>      -0.40000000      -0.30000000       0.20000000 </v>
   <v>      -0.30000000      -0.30000000       0.20000000 </v>
   <v>      -0.20000000      -0.30000000       0.20000000 </v>
   <v>      -0.10000000      -0.30000000       0.20000000 </v>
   <v>       0.00000000      -0.20000000       0.20000000 </v>
   <v>       0.10000000      -0.20000000       0.20000000 </v>
   <v>       0.20000000      -0.20000000       0.20000000 </v>
   <v>       0.30000000      -0.20000000       0.20000000 </v>
   <v>       0.40000000      -0.20000000       0.20000000 </v>
   <v>       0.50000000      -0.20000000       0.20000000 </v>
   <v>      -0.40000000      -0.20000000       0.20000000 </v>
   <v>      -0.30000000      -0.20000000       0.20000000 </v>
   <v>      -0.20000000      -0.20000000       0.20000000 </v>
   <v>      -0.10000000      -0.20000000       0.20000000 </v>
   <v>       0.00000000      -0.10000000       0.20000000 </v>
   <v>       0.10000000      -0.10000000       0.20000000 </v>
   <v>       0.20000000      -0.10000000       0.20000000 </v>
   <v>       0.30000000      -0.10000000       0.20000000 </v>
   <v>       0.40000000      -0.10000000       0.20000000 </v>
   <v>       0.50000000      -0.10000000       0.20000000 </v>
   <v>      -0.40000000      -0.10000000       0.20000000 </v>
   <v>      -0.30000000      -0.10000000       0.20000000 </v>
   <v>      -0.20000000      -0.10000000       0.20000000 </v>
   <v>      -0.10000000      -0.10000000       0.20000000 </v>
   <v>       0.00000000       0.00000000       0.30000000 </v>
   <v>       0.10000000       0.00000000       0.30000000 </v>
   <v>       0.20000000       0.00000000       0.30000000 </v>
   <v>       0.30000000       0.00000000       0.30000000 </v>
   <v>       0.40000000       0.00000000       0.30000000 </v>
   <v>       0.50000000       0.00000000       0.30000000 </v>
   <v>      -0.40000000       0.00000000       0.30000000 </v>
   <v>      -0.30000000       0.00000000       0.30000000 </v>
   <v>      -0.20000000       0.00000000       0.30000000 </v>
   <v>      -0.10000000       0.00000000       0.30000000 </v>
   <v>       0.00000000       0.10000000       0.30000000 </v>
   <v>       0.10000000       0.10000000       0.30000000 </v>
   <v>       0.20000000       0.10000000       0.30000000 </v>
   <v>       0.30000000       0.10000000       0.30000000 </v>
   <v>       0.40000000       0.10000000       0.30000000 </v>
   <v>       0.50000000       0.10000000       0.30000000 </v>
   <v>      -0.40000000       0.10000000       0.30000000 </v>
   <v>      -0.30000000       0.10000000       0.30000000 </v>
   <v>      -0.20000000       0.10000000       0.30000000 </v>
   <v>      -0.10000000       0.10000000       0.30000000 </v>
   <v>       0.00000000       0.20000000       0.30000000 </v>
   <v>       0.10000000       0.20000000       0.30000000 </v>
   <v>       0.20000000       0.20000000       0.30000000 </v>
   <v>       0.30000000       0.20000000       0.30000000 </v>
   <v>       0.40000000       0.20000000       0.30000000 </v>
   <v>       0.50000000       0.20000000       0.30000000 </v>
   <v>      -0.40000000       0.20000000       0.30000000 </v>
   <v>      -0.30000000       0.20000000       0.30000000 </v>
   <v>      -0.20000000       0.20000000       0.30000000 </v>
   <v>      -0.10000000       0.20000000       0.30000000 </v>
   <v>       0.00000000       0.30000000       0.30000000 </v>
   <v>       0.10000000       0.30000000       0.30000000 </v>
   <v>       0.20000000       0.30000000       0.30000000 </v>
   <v>       0.30000000       0.30000000       0.30000000 </v>
   <v>       0.40000000       0.30000000       0.30000000 </v>
   <v>       0.50000000       0.30000000       0.30000000 </v>
   <v>      -0.40000000       0.30000000       0.30000000 </v>
   <v>      -0.30000000       0.30000000       0.30000000 </v>
   <v>      -0.20000000       0.30000000       0.30000000 </v>
   <v>      -0.10000000       0.30000000       0.30000000 </v>
   <v>       0.00000000       0.40000000       0.30000000 </v>
   <v>       0.10000000       0.40000000       0.30000000 </v>
   <v>       0.20000000       0.40000000       0.30000000 </v>
   <v>       0.30000000       0.40000000       0.30000000 </v>
   <v>       0.40000000       0.40000000       0.30000000 </v>
   <v>       0.50000000       0.40000000       0.30000000 </v>
   <v>      -0.40000000       0.40000000       0.30000000 </v>
   <v>      -0.30000000       0.40000000       0.30000000 </v>
   <v>      -0.20000000       0.40000000       0.30000000 </v>
   <v>      -0.10000000       0.40000000       0.30000000 </v>
   <v>       0.00000000       0.50000000       0.30000000 </v>
   <v>       0.10000000       0.50000000       0.30000000 </v>
   <v>       0.20000000       0.50000000       0.30000000 </v>
   <v>       0.30000000       0.50000000       0.30000000 </v>
   <v>       0.40000000       0.50000000       0.30000000 </v>
   <v>       0.50000000       0.50000000       0.30000000 </v>
   <v>      -0.40000000       0.50000000       0.30000000 </v>
   <v>      -0.30000000       0.50000000       0.30000000 </v>
   <v>      -0.20000000       0.50000000       0.30000000 </v>
   <v>      -0.10000000       0.50000000       0.30000000 </v>
   <v>       0.00000000      -0.40000000       0.30000000 </v>
   <v>       0.10000000      -0.40000000       0.30000000 </v>
   <v>       0.20000000      -0.40000000       0.30000000 </v>
   <v>       0.30000000      -0.40000000       0.30000000 </v>
   <v>       0.40000000      -0.40000000       0.30000000 </v>
   <v>       0.50000000      -0.40000000       0.30000000 </v>
   <v>      -0.40000000      -0.40000000       0.30000000 </v>
   <v>      -0.30000000      -0.40000000       0.30000000 </v>
   <v>      -0.20000000      -0.40000000       0.30000000 </v>
   <v>      -0.10000000      -0.40000000       0.30000000 </v>
   <v>       0.00000000      -0.30000000       0.30000000 </v>
   <v>       0.10000000      -0.30000000       0.30000000 </v>
   <v>       0.20000000      -0.30000000       0.30000000 </v>
   <v>       0.30000000      -0.30000000       0.30000000 </v>
   <v>       0.40000000      -0.30000000       0.30000000 </v>
   <v>       0.50000000      -0.30000000       0.30000000 </v>
   <v>      -0.40000000      -0.30000000       0.30000000 </v>
   <v>      -0.30000000      -0.30000000       0.30000000 </v>
   <v>      -0.20000000      -0.30000000       0.30000000 </v>
   <v>      -0.10000000      -0.30000000       0.30000000 </v>
   <v>       0.00000000      -0.20000000       0.30000000 </v>
   <v>       0.10000000      -0.20000000       0.30000000 </v>
   <v>       0.20000000      -0.20000000       0.30000000 </v>
   <v>       0.30000000      -0.20000000       0.30000000 </v>
   <v>       0.40000000      -0.20000000       0.30000000 </v>
   <v>       0.50000000      -0.20000000       0.30000000 </v>
   <v>      -0.40000000      -0.20000000       0.30000000 </v>
   <v>      -0.30000000      -0.20000000       0.30000000 </v>
   <v>      -0.20000000      -0.20000000       0.30000000 </v>
   <v>      -0.10000000      -0.20000000       0.30000000 </v>
   <v>       0.00000000      -0.10000000       0.30000000 </v>
   <v>       0.10000000      -0.10000000       0.30000000 </v>
   <v>       0.20000000      -0.10000000       0.30000000 </v>
   <v>       0.30000000      -0.10000000       0.30000000 </v>
   <v>       0.40000000      -0.10000000       0.30000000 </v>
   <v>       0.50000000      -0.10000000       0.30000000 </v>
   <v>      -0.40000000      -0.10000000       0.30000000 </v>
   <v>      -0.30000000      -0.10000000       0.30000000 </v>
   <v>      -0.20000000      -0.10000000       0.30000000 </v>
   <v>      -0.10000000      -0.10000000       0.30000000 </v>
   <v>       0.00000000       0.00000000       0.40000000 </v>
   <v>       0.10000000       0.00000000       0.40000000 </v>
   <v>       0.20000000       0.00000000       0.40000000 </v>
   <v>       0.30000000       0.00000000       0.40000000 </v>
   <v>       0.40000000       0.00000000       0.40000000 </v>
   <v>       0.50000000       0.00000000       0.40000000 </v>
   <v>      -0.40000000       0.00000000       0.40000000 </v>
   <v>      -0.30000000       0.00000000       0.40000000 </v>
   <v>      -0.20000000       0.00000000       0.40000000 </v>
   <v>      -0.10000000       0.00000000       0.40000000 </v>
   <v>       0.00000000       0.10000000       0.40000000 </v>
   <v>       0.10000000       0.10000000       0.40000000 </v>
   <v>       0.20000000       0.10000000       0.40000000 </v>
   <v>       0.30000000       0.10000000       0.40000000 </v>
   <v>       0.40000000       0.10000000       0.40000000 </v>
   <v>       0.50000000       0.10000000       0.40000000 </v>
   <v>      -0.40000000       0.10000000       0.40000000 </v>
   <v>      -0.30000000       0.10000000       0.40000000 </v>
   <v>      -0.20000000       0.10000000       0.40000000 </v>
   <v>      -0.10000000       0.10000000       0.40000000 </v>
   <v>       0.00000000       0.20000000       0.40000000 </v>
   <v>       0.10000000       0.20000000       0.40000000 </v>
   <v>       0.20000000       0.20000000       0.40000000 </v>
   <v>       0.30000000       0.20000000       0.40000000 </v>
   <v>       0.40000000       0.20000000       0.40000000 </v>
   <v>       0.50000000       0.20000000       0.40000000 </v>
   <v>      -0.40000000       0.20000000       0.40000000 </v>
   <v>      -0.30000000       0.20000000       0.40000000 </v>
   <v>      -0.20000000       0.20000000       0.40000000 </v>
   <v>      -0.10000000       0.20000000       0.40000000 </v>
   <v>       0.00000000       0.30000000       0.40000000 </v>
   <v>       0.10000000       0.30000000       0.40000000 </v>
   <v>       0.20000000       0.30000000       0.40000000 </v>
   <v>       0.30000000       0.30000000       0.40000000 </v>
   <v>       0.40000000       0.30000000       0.40000000 </v>
   <v>       0.50000000       0.30000000       0.40000000 </v>
   <v>      -0.40000000       0.30000000       0.40000000 </v>
   <v>      -0.30000000       0.30000000       0.40000000 </v>
   <v>      -0.20000000       0.30000000       0.40000000 </v>
   <v>      -0.10000000       0.30000000       0.40000000 </v>
   <v>       0.00000000       0.40000000       0.40000000 </v>
   <v>       0.10000000       0.40000000       0.40000000 </v>
   <v>       0.20000000       0.40000000       0.40000000 </v>
   <v>       0.30000000       0.40000000       0.40000000 </v>
   <v>       0.40000000       0.40000000       0.40000000 </v>
   <v>       0.50000000       0.40000000       0.40000000 </v>
   <v>      -0.40000000       0.40000000       0.40000000 </v>
   <v>      -0.30000000       0.40000000       0.40000000 </v>
   <v>      -0.20000000       0.40000000       0.40000000 </v>
   <v>      -0.10000000       0.40000000       0.40000000 </v>
   <v>       0.00000000       0.50000000       0.40000000 </v>
   <v>       0.10000000       0.50000000       0.40000000 </v>
   <v>       0.20000000       0.50000000       0.40000000 </v>
   <v>       0.30000000       0.50000000       0.40000000 </v>
   <v>       0.40000000       0.50000000       0.40000000 </v>
   <v>       0.50000000       0.50000000       0.40000000 </v>
   <v>      -0.40000000       0.50000000       0.40000000 </v>
   <v>      -0.30000000       0.50000000       0.40000000 </v>
   <v>      -0.20000000       0.50000000       0.40000000 </v>
   <v>      -0.10000000       0.50000000       0.40000000 </v>
   <v>       0.00000000      -0.40000000       0.40000000 </v>
   <v>       0.10000000      -0.40000000       0.40000000 </v>
   <v>       0.20000000      -0.40000000       0.40000000 </v>
   <v>       0.30000000      -0.40000000       0.40000000 </v>
   <v>       0.40000000      -0.40000000       0.40000000 </v>
   <v>       0.50000000      -0.40000000       0.40000000 </v>
   <v>      -0.40000000      -0.40000000       0.40000000 </v>
   <v>      -0.30000000      -0.40000000       0.40000000 </v>
   <v>      -0.20000000      -0.40000000       0.40000000 </v>
   <v>      -0.10000000      -0.40000000       0.40000000 </v>
   <v>       0.00000000      -0.30000000       0.40000000 </v>
   <v>       0.10000000      -0.30000000       0.40000000 </v>
   <v>       0.20000000      -0.30000000       0.40000000 </v>
   <v>       0.30000000      -0.30000000       0.40000000 </v>
   <v>       0.40000000      -0.30000000       0.40000000 </v>
   <v>       0.50000000      -0.30000000       0.40000000 </v>
   <v>      -0.40000000      -0.30000000       0.40000000 </v>
   <v>      -0.30000000      -0.30000000       0.40000000 </v>
   <v>      -0.20000000      -0.30000000       0.40000000 </v>
   <v>      -0.10000000      -0.30000000       0.40000000 </v>
   <v>       0.00000000      -0.20000000       0.40000000 </v>
   <v>       0.10000000      -0.20000000       0.40000000 </v>
   <v>       0.20000000      -0.20000000       0.40000000 </v>
   <v>       0.30000000      -0.20000000       0.40000000 </v>
   <v>       0.40000000      -0.20000000       0.40000000 </v>
   <v>       0.50000000      -0.20000000       0.40000000 </v>
   <v>      -0.40000000      -0.20000000       0.40000000 </v>
   <v>      -0.30000000      -0.20000000       0.40000000 </v>
   <v>      -0.20000000      -0.20000000       0.40000000 </v>
   <v>      -0.10000000      -0.20000000       0.40000000 </v>
   <v>       0.00000000      -0.10000000       0.40000000 </v>
   <v>       0.10000000      -0.10000000       0.40000000 </v>
   <v>       0.20000000      -0.10000000       0.40000000 </v>
   <v>       0.30000000      -0.10000000       0.40000000 </v>
   <v>       0.40000000      -0.10000000       0.40000000 </v>
   <v>       0.50000000      -0.10000000       0.40000000 </v>
   <v>      -0.40000000      -0.10000000       0.40000000 </v>
   <v>      -0.30000000      -0.10000000       0.40000000 </v>
   <v>      -0.20000000      -0.10000000       0.40000000 </v>
   <v>      -0.10000000      -0.10000000       0.40000000 </v>
   <v>       0.00000000       0.00000000       0.50000000 </v>
   <v>       0.10000000       0.00000000       0.50000000 </v>
   <v>       0.20000000       0.00000000       0.50000000 </v>
   <v>       0.30000000       0.00000000       0.50000000 </v>
   <v>       0.40000000       0.00000000       0.50000000 </v>
   <v>       0.50000000       0.00000000       0.50000000 </v>
   <v>       0.00000000       0.10000000       0.50000000 </v>
   <v>       0.10000000       0.10000000       0.50000000 </v>
   <v>       0.20000000       0.10000000       0.50000000 </v>
   <v>       0.30000000       0.10000000       0.50000000 </v>
   <v>       0.40000000       0.10000000       0.50000000 </v>
   <v>       0.50000000       0.10000000       0.50000000 </v>
   <v>      -0.40000000       0.10000000       0.50000000 </v>
   <v>      -0.30000000       0.10000000       0.50000000 </v>
   <v>      -0.20000000       0.10000000       0.50000000 </v>
   <v>      -0.10000000       0.10000000       0.50000000 </v>
   <v>       0.00000000       0.20000000       0.50000000 </v>
   <v>       0.10000000       0.20000000       0.50000000 </v>
   <v>       0.20000000       0.20000000       0.50000000 </v>
   <v>       0.30000000       0.20000000       0.50000000 </v>
   <v>       0.40000000       0.20000000       0.50000000 </v>
   <v>       0.50000000       0.20000000       0.50000000 </v>
   <v>      -0.40000000       0.20000000       0.50000000 </v>
   <v>      -0.30000000       0.20000000       0.50000000 </v>
   <v>      -0.20000000       0.20000000       0.50000000 </v>
   <v>      -0.10000000       0.20000000       0.50000000 </v>
   <v>       0.00000000       0.30000000       0.50000000 </v>
   <v>       0.10000000       0.30000000       0.50000000 </v>
   <v>       0.20000000       0.30000000       0.50000000 </v>
   <v>       0.30000000       0.30000000       0.50000000 </v>
   <v>       0.40000000       0.30000000       0.50000000 </v>
   <v>       0.50000000       0.30000000       0.50000000 </v>
   <v>      -0.40000000       0.30000000       0.50000000 </v>
   <v>      -0.30000000       0.30000000       0.50000000 </v>
   <v>      -0.20000000       0.30000000       0.50000000 </v>
   <v>      -0.10000000       0.30000000       0.50000000 </v>
   <v>       0.00000000       0.40000000       0.50000000 </v>
   <v>       0.10000000       0.40000000       0.50000000 </v>
   <v>       0.20000000       0.40000000       0.50000000 </v>
   <v>       0.30000000       0.40000000       0.50000000 </v>
   <v>       0.40000000       0.40000000       0.50000000 </v>
   <v>       0.50000000       0.40000000       0.50000000 </v>
   <v>      -0.40000000       0.40000000       0.50000000 </v>
   <v>      -0.30000000       0.40000000       0.50000000 </v>
   <v>      -0.20000000       0.40000000       0.50000000 </v>
   <v>      -0.10000000       0.40000000       0.50000000 </v>
   <v>       0.00000000       0.50000000       0.50000000 </v>
   <v>       0.10000000       0.50000000       0.50000000 </v>
   <v>       0.20000000       0.50000000       0.50000000 </v>
   <v>       0.30000000       0.50000000       0.50000000 </v>
   <v>       0.40000000       0.50000000       0.50000000 </v>
   <v>       0.50000000       0.50000000       0.50000000 </v>
  </varray>
  <varray name="weights" >
   <v>       0.00100000 </v>
   <v>       0.00200000 </v>
   <v>       0.00200000 </v>
   <v>       0.00200000 </v>
   <v>       0.00200000 </v>
   <v>       0.00100000 </v>
   <v>       0.00200000 </v>
   <v>       0.00200000 </v>
   <v>       0.00200000 </v>
   <v>       0.00200000 </v>
   <v>       0.00200000 </v>
   <v>       0.00200000 </v>
   <v>       0.00200000 </v>
   <v>       0.00200000 </v>
   <v>       0.00200000 </v>
   <v>       0.00200000 </v>
   <v>       0.00200000 </v>
   <v>       0.00200000 </v>
   <v>       0.00200000 </v>
   <v>       0.00200000 </v>
   <v>       0.00200000 </v>
   <v>       0.00200000 </v>
   <v>       0.00200000 </v>
   <v>       0.00200000 </v>
   <v>       0.00200000 </v>
   <v>       0.00200000 </v>
   <v>       0.00200000 </v>
   <v>       0.00200000 </v>
   <v>       0.00200000 </v>
   <v>       0.00200000 </v>
   <v>       0.00200000 </v>
   <v>       0.00200000 </v>
   <v>       0.00200000 </v>
   <v>       0.00200000 </v>
   <v>       0.00200000 </v>
   <v>       0.00200000 </v>
   <v>       0.00200000 </v>
   <v>       0.00200000 </v>
   <v>       0.00200000 </v>
   <v>       0.00200000 </v>
   <v>       0.00200000 </v>
   <v>       0.00200000 </v>
   <v>       0.00200000 </v>
   <v>       0.00200000 </v>
   <v>       0.00200000 </v>
   <v>       0.00200000 </v>
   <v>       0.00100000 </v>
   <v>       0.00200000 </v>
   <v>       0.00200000 </v>
   <v>       0.00200000 </v>
   <v>       0.00200000 </v>
   <v>       0.00100000 </v>
   <v>       0.00200000 </v>
   <v>       0.00200000 </v>
   <v>       0.00200000 </v>
   <v>       0.00200000 </v>
   <v>       0.00200000 </v>
   <v>       0.00200000 </v>
   <v>       0.00200000 </v>
   <v>       0.00200000 </v>
   <v>       0.00200000 </v>
   <v>       0.00200000 </v>
   <v>       0.00200000 </v>
   <v>       0.00200000 </v>
   <v>       0.00200000 </v>
   <v>       0.00200000 </v>
   <v>       0.00200000 </v>
   <v>       0.00200000 </v>
   <v>       0.00200000 </v>
   <v>       0.00200000 </v>
   <v>       0.00200000 </v>
   <v>       0.00200000 </v>
   <v>       0.00200000 </v>
   <v>       0.00200000 </v>
   <v>       0.00200000 </v>
   <v>       0.00200000 </v>
   <v>       0.00200000 </v>
   <v>       0.00200000 </v>
   <v>       0.00200000 </v>
   <v>       0.00200000 </v>
   <v>       0.00200000 </v>
   <v>       0.00200000 </v>
   <v>       0.00200000 </v>
   <v>       0.00200000 </v>
   <v>       0.00200000 </v>
   <v>       0.00200000 </v>
   <v>       0.00200000 </v>
   <v>       0.00200000 </v>
   <v>       0.00200000 </v>
   <v>       0.00200000 </v>
   <v>       0.00200000 </v>
   <v>       0.00200000 </v>
   <v>       0.00200000 </v>
   <v>       0.00200000 </v>
   <v>       0.00200000 </v>
   <v>       0.00200000 </v>
   <v>       0.00200000 </v>
   <v>       0.00200000 </v>
   <v>       0.00200000 </v>
   <v>       0.00200000 </v>
   <v>       0.00200000 </v>
   <v>       0.00200000 </v>
   <v>       0.00200000 </v>
   <v>       0.00200000 </v>
   <v>       0.00200000 </v>
   <v>       0.00200000 </v>
   <v>       0.00200000 </v>
   <v>       0.00200000 </v>
   <v>       0.00200000 </v>
   <v>       0.00200000 </v>
   <v>       0.00200000 </v>
   <v>       0.00200000 </v>
   <v>       0.00200000 </v>
   <v>       0.00200000 </v>
   <v>       0.00200000 </v>
   <v>       0.00200000 </v>
   <v>       0.00200000 </v>
   <v>       0.00200000 </v>
   <v>       0.00200000 </v>
   <v>       0.00200000 </v>
   <v>       0.00200000 </v>
   <v>       0.00200000 </v>
   <v>       0.00200000 </v>
   <v>       0.00200000 </v>
   <v>       0.00200000 </v>
   <v>       0.00200000 </v>
   <v>       0.00200000 </v>
   <v>       0.00200000 </v>
   <v>       0.00200000 </v>
   <v>       0.00200000 </v>
   <v>       0.00200000 </v>
   <v>       0.00200000 </v>
   <v>       0.00200000 </v>
   <v>       0.00200000 </v>
   <v>       0.00200000 </v>
   <v>       0.00200000 </v>
   <v>       0.00200000 </v>
   <v>       0.00200000 </v>
   <v>       0.00200000 </v>
   <v>       0.00200000 </v>
   <v>       0.00200000 </v>
   <v>       0.00200000 </v>
   <v>       0.00200000 </v>
   <v>       0.00200000 </v>
   <v>       0.00200000 </v>
   <v>       0.00200000 </v>
   <v>       0.00200000 </v>
   <v>       0.00200000 </v>
   <v>       0.00200000 </v>
   <v>       0.00200000 </v>
   <v>       0.00200000 </v>
   <v>       0.00200000 </v>
   <v>       0.00200000 </v>
   <v>       0.00200000 </v>
   <v>       0.00200000 </v>
   <v>       0.00200000 </v>
   <v>       0.00200000 </v>
   <v>       0.00200000 </v>
   <v>       0.00200000 </v>
   <v>       0.00200000 </v>
   <v>       0.00200000 </v>
   <v>       0.00200000 </v>
   <v>       0.00200000 </v>
   <v>       0.00200000 </v>
   <v>       0.00200000 </v>
   <v>       0.00200000 </v>
   <v>       0.00200000 </v>
   <v>       0.00200000 </v>
   <v>       0.00200000 </v>
   <v>       0.00200000 </v>
   <v>       0.00200000 </v>
   <v>       0.00200000 </v>
   <v>       0.00200000 </v>
   <v>       0.00200000 </v>
   <v>       0.00200000 </v>
   <v>       0.00200000 </v>
   <v>       0.00200000 </v>
   <v>       0.00200000 </v>
   <v>       0.00200000 </v>
   <v>       0.00200000 </v>
   <v>       0.00200000 </v>
   <v>       0.00200000 </v>
   <v>       0.00200000 </v>
   <v>       0.00200000 </v>
   <v>       0.00200000 </v>
   <v>       0.00200000 </v>
   <v>       0.00200000 </v>
   <v>       0.00200000 </v>
   <v>       0.00200000 </v>
   <v>       0.00200000 </v>
   <v>       0.00200000 </v>
   <v>       0.00200000 </v>
   <v>       0.00200000 </v>
   <v>       0.00200000 </v>
   <v>       0.00200000 </v>
   <v>       0.00200000 </v>
   <v>       0.00200000 </v>
   <v>       0.00200000 </v>
   <v>       0.00200000 </v>
   <v>       0.00200000 </v>
   <v>       0.00200000 </v>
   <v>       0.00200000 </v>
   <v>       0.00200000 </v>
   <v>       0.00200000 </v>
   <v>       0.00200000 </v>
   <v>       0.00200000 </v>
   <v>       0.00200000 </v>
   <v>       0.00200000 </v>
   <v>       0.00200000 </v>
   <v>       0.00200000 </v>
   <v>       0.00200000 </v>
   <v>       0.00200000 </v>
   <v>       0.00200000 </v>
   <v>       0.00200000 </v>
   <v>       0.00200000 </v>
   <v>       0.00200000 </v>
   <v>       0.00200000 </v>
   <v>       0.00200000 </v>
   <v>       0.00200000 </v>
   <v>       0.00200000 </v>
   <v>       0.00200000 </v>
   <v>       0.00200000 </v>
   <v>       0.00200000 </v>
   <v>       0.00200000 </v>
   <v>       0.00200000 </v>
   <v>       0.00200000 </v>
   <v>       0.00200000 </v>
   <v>       0.00200000 </v>
   <v>       0.00200000 </v>
   <v>       0.00200000 </v>
   <v>       0.00200000 </v>
   <v>       0.00200000 </v>
   <v>       0.00200000 </v>
   <v>       0.00200000 </v>
   <v>       0.00200000 </v>
   <v>       0.00200000 </v>
   <v>       0.00200000 </v>
   <v>       0.00200000 </v>
   <v>       0.00200000 </v>
   <v>       0.00200000 </v>
   <v>       0.00200000 </v>
   <v>       0.00200000 </v>
   <v>       0.00200000 </v>
   <v>       0.00200000 </v>
   <v>       0.00200000 </v>
   <v>       0.00200000 </v>
   <v>       0.00200000 </v>
   <v>       0.00200000 </v>
   <v>       0.00200000 </v>
   <v>       0.00200000 </v>
   <v>       0.00200000 </v>
   <v>       0.00200000 </v>
   <v>       0.00200000 </v>
   <v>       0.00200000 </v>
   <v>       0.00200000 </v>
   <v>       0.00200000 </v>
   <v>       0.00200000 </v>
   <v>       0.00200000 </v>
   <v>       0.00200000 </v>
   <v>       0.00200000 </v>
   <v>       0.00200000 </v>
   <v>       0.00200000 </v>
   <v>       0.00200000 </v>
   <v>       0.00200000 </v>
   <v>       0.00200000 </v>
   <v>       0.00200000 </v>
   <v>       0.00200000 </v>
   <v>       0.00200000 </v>
   <v>       0.00200000 </v>
   <v>       0.00200000 </v>
   <v>       0.00200000 </v>
   <v>       0.00200000 </v>
   <v>       0.00200000 </v>
   <v>       0.00200000 </v>
   <v>       0.00200000 </v>
   <v>       0.00200000 </v>
   <v>       0.00200000 </v>
   <v>       0.00200000 </v>
   <v>       0.00200000 </v>
   <v>       0.00200000 </v>
   <v>       0.00200000 </v>
   <v>       0.00200000 </v>
   <v>       0.00200000 </v>
   <v>       0.00200000 </v>
   <v>       0.00200000 </v>
   <v>       0.00200000 </v>
   <v>       0.00200000 </v>
   <v>       0.00200000 </v>
   <v>       0.00200000 </v>
   <v>       0.00200000 </v>
   <v>       0.00200000 </v>
   <v>       0.00200000 </v>
   <v>       0.00200000 </v>
   <v>       0.00200000 </v>
   <v>       0.00200000 </v>
   <v>       0.00200000 </v>
   <v>       0.00200000 </v>
   <v>       0.00200000 </v>
   <v>       0.00200000 </v>
   <v>       0.00200000 </v>
   <v>       0.00200000 </v>
   <v>       0.00200000 </v>
   <v>       0.00200000 </v>
   <v>       0.00200000 </v>
   <v>       0.00200000 </v>
   <v>       0.00200000 </v>
   <v>       0.00200000 </v>
   <v>       0.00200000 </v>
   <v>       0.00200000 </v>
   <v>       0.00200000 </v>
   <v>       0.00200000 </v>
   <v>       0.00200000 </v>
   <v>       0.00200000 </v>
   <v>       0.00200000 </v>
   <v>       0.00200000 </v>
   <v>       0.00200000 </v>
   <v>       0.00200000 </v>
   <v>       0.00200000 </v>
   <v>       0.00200000 </v>
   <v>       0.00200000 </v>
   <v>       0.00200000 </v>
   <v>       0.00200000 </v>
   <v>       0.00200000 </v>
   <v>       0.00200000 </v>
   <v>       0.00200000 </v>
   <v>       0.00200000 </v>
   <v>       0.00200000 </v>
   <v>       0.00200000 </v>
   <v>       0.00200000 </v>
   <v>       0.00200000 </v>
   <v>       0.00200000 </v>
   <v>       0.00200000 </v>
   <v>       0.00200000 </v>
   <v>       0.00200000 </v>
   <v>       0.00200000 </v>
   <v>       0.00200000 </v>
   <v>       0.00200000 </v>
   <v>       0.00200000 </v>
   <v>       0.00200000 </v>
   <v>       0.00200000 </v>
   <v>       0.00200000 </v>
   <v>       0.00200000 </v>
   <v>       0.00200000 </v>
   <v>       0.00200000 </v>
   <v>       0.00200000 </v>
   <v>       0.00200000 </v>
   <v>       0.00200000 </v>
   <v>       0.00200000 </v>
   <v>       0.00200000 </v>
   <v>       0.00200000 </v>
   <v>       0.00200000 </v>
   <v>       0.00200000 </v>
   <v>       0.00200000 </v>
   <v>       0.00200000 </v>
   <v>       0.00200000 </v>
   <v>       0.00200000 </v>
   <v>       0.00200000 </v>
   <v>       0.00200000 </v>
   <v>       0.00200000 </v>
   <v>       0.00200000 </v>
   <v>       0.00200000 </v>
   <v>       0.00200000 </v>
   <v>       0.00200000 </v>
   <v>       0.00200000 </v>
   <v>       0.00200000 </v>
   <v>       0.00200000 </v>
   <v>       0.00200000 </v>
   <v>       0.00200000 </v>
   <v>       0.00200000 </v>
   <v>       0.00200000 </v>
   <v>       0.00200000 </v>
   <v>       0.00200000 </v>
   <v>       0.00200000 </v>
   <v>       0.00200000 </v>
   <v>       0.00200000 </v>
   <v>       0.00200000 </v>
   <v>       0.00200000 </v>
   <v>       0.00200000 </v>
   <v>       0.00200000 </v>
   <v>       0.00200000 </v>
   <v>       0.00200000 </v>
   <v>       0.00200000 </v>
   <v>       0.00200000 </v>
   <v>       0.00200000 </v>
   <v>       0.00200000 </v>
   <v>       0.00200000 </v>
   <v>       0.00200000 </v>
   <v>       0.00200000 </v>
   <v>       0.00200000 </v>
   <v>       0.00200000 </v>
   <v>       0.00200000 </v>
   <v>       0.00200000 </v>
   <v>       0.00200000 </v>
   <v>       0.00200000 </v>
   <v>       0.00200000 </v>
   <v>       0.00200000 </v>
   <v>       0.00200000 </v>
   <v>       0.00200000 </v>
   <v>       0.00200000 </v>
   <v>       0.00200000 </v>
   <v>       0.00200000 </v>
   <v>       0.00200000 </v>
   <v>       0.00200000 </v>
   <v>       0.00200000 </v>
   <v>       0.00200000 </v>
   <v>       0.00200000 </v>
   <v>       0.00200000 </v>
   <v>       0.00200000 </v>
   <v>       0.00200000 </v>
   <v>       0.00200000 </v>
   <v>       0.00200000 </v>
   <v>       0.00200000 </v>
   <v>       0.00200000 </v>
   <v>       0.00200000 </v>
   <v>       0.00200000 </v>
   <v>       0.00200000 </v>
   <v>       0.00200000 </v>
   <v>       0.00200000 </v>
   <v>       0.00200000 </v>
   <v>       0.00200000 </v>
   <v>       0.00200000 </v>
   <v>       0.00200000 </v>
   <v>       0.00200000 </v>
   <v>       0.00200000 </v>
   <v>       0.00200000 </v>
   <v>       0.00200000 </v>
   <v>       0.00200000 </v>
   <v>       0.00200000 </v>
   <v>       0.00200000 </v>
   <v>       0.00200000 </v>
   <v>       0.00200000 </v>
   <v>       0.00200000 </v>
   <v>       0.00200000 </v>
   <v>       0.00200000 </v>
   <v>       0.00200000 </v>
   <v>       0.00200000 </v>
   <v>       0.00200000 </v>
   <v>       0.00200000 </v>
   <v>       0.00200000 </v>
   <v>       0.00200000 </v>
   <v>       0.00200000 </v>
   <v>       0.00200000 </v>
   <v>       0.00200000 </v>
   <v>       0.00200000 </v>
   <v>       0.00200000 </v>
   <v>       0.00200000 </v>
   <v>       0.00200000 </v>
   <v>       0.00200000 </v>
   <v>       0.00200000 </v>
   <v>       0.00200000 </v>
   <v>       0.00200000 </v>
   <v>       0.00200000 </v>
   <v>       0.00100000 </v>
   <v>       0.00200000 </v>
   <v>       0.00200000 </v>
   <v>       0.00200000 </v>
   <v>       0.00200000 </v>
   <v>       0.00100000 </v>
   <v>       0.00200000 </v>
   <v>       0.00200000 </v>
   <v>       0.00200000 </v>
   <v>       0.00200000 </v>
   <v>       0.00200000 </v>
   <v>       0.00200000 </v>
   <v>       0.00200000 </v>
   <v>       0.00200000 </v>
   <v>       0.00200000 </v>
   <v>       0.00200000 </v>
   <v>       0.00200000 </v>
   <v>       0.00200000 </v>
   <v>       0.00200000 </v>
   <v>       0.00200000 </v>
   <v>       0.00200000 </v>
   <v>       0.00200000 </v>
   <v>       0.00200000 </v>
   <v>       0.00200000 </v>
   <v>       0.00200000 </v>
   <v>       0.00200000 </v>
   <v>       0.00200000 </v>
   <v>       0.00200000 </v>
   <v>       0.00200000 </v>
   <v>       0.00200000 </v>
   <v>       0.00200000 </v>
   <v>       0.00200000 </v>
   <v>       0.00200000 </v>
   <v>       0.00200000 </v>
   <v>       0.00200000 </v>
   <v>       0.00200000 </v>
   <v>       0.00200000 </v>
   <v>       0.00200000 </v>
   <v>       0.00200000 </v>
   <v>       0.00200000 </v>
   <v>       0.00200000 </v>
   <v>       0.00200000 </v>
   <v>       0.00200000 </v>
   <v>       0.00200000 </v>
   <v>       0.00200000 </v>
   <v>       0.00200000 </v>
   <v>       0.00100000 </v>
   <v>       0.00200000 </v>
   <v>       0.00200000 </v>
   <v>       0.00200000 </v>
   <v>       0.00200000 </v>
   <v>       0.00100000 </v>
  </varray>
 </kpoints>
 <parameters>
  <separator name="general" >
   <i type="string" name="SYSTEM">ice</i>
   <i type="logical" name="LCOMPAT"> F  </i>
  </separator>
  <separator name="electronic" >
   <i type="string" name="PREC">normal</i>
   <i name="ENMAX">    400.00000000</i>
   <i name="ENAUG">    605.39200000</i>
   <i name="EDIFF">      0.00000100</i>
   <i type="int" name="IALGO">    48</i>
   <i type="int" name="IWAVPR">    10</i>
   <i type="int" name="NBANDS">   172</i>
   <i name="NELECT">    248.00000000</i>
   <i type="int" name="TURBO">     0</i>
   <i type="int" name="IRESTART">     0</i>
   <i type="int" name="NREBOOT">     0</i>
   <i type="int" name="NMIN">     0</i>
   <i name="EREF">      0.00000000</i>
   <separator name="electronic smearing" >
    <i type="int" name="ISMEAR">    -1</i>
    <i name="SIGMA">      0.05000000</i>
    <i name="KSPACING">      0.50000000</i>
    <i type="logical" name="KGAMMA"> T  </i>
   </separator>
   <separator name="electronic projectors" >
    <i type="logical" name="LREAL"> T  </i>
    <v name="ROPT">     -0.00050000     -0.00050000</v>
    <i type="int" name="LMAXPAW">  -100</i>
    <i type="int" name="LMAXMIX">     2</i>
    <i type="logical" name="NLSPLINE"> F  </i>
   </separator>
   <separator name="electronic startup" >
    <i type="int" name="ISTART">     0</i>
    <i type="int" name="ICHARG">     1</i>
    <i type="int" name="INIWAV">     1</i>
   </separator>
   <separator name="electronic spin" >
    <i type="int" name="ISPIN">     1</i>
    <i type="logical" name="LNONCOLLINEAR"> F  </i>
    <v name="MAGMOM">      1.00000000      1.00000000      1.00000000      1.00000000      1.00000000      1.00000000      1.00000000      1.00000000      1.00000000      1.00000000      1.00000000      1.00000000      1.00000000      1.00000000      1.00000000      1.00000000      1.00000000      1.00000000      1.00000000      1.00000000
      1.00000000      1.00000000      1.00000000      1.00000000      1.00000000      1.00000000      1.00000000      1.00000000      1.00000000      1.00000000      1.00000000      1.00000000      1.00000000      1.00000000      1.00000000      1.00000000      1.00000000      1.00000000      1.00000000      1.00000000
      1.00000000      1.00000000      1.00000000      1.00000000      1.00000000      1.00000000      1.00000000      1.00000000      1.00000000      1.00000000      1.00000000      1.00000000      1.00000000      1.00000000      1.00000000      1.00000000      1.00000000      1.00000000      1.00000000      1.00000000
      1.00000000      1.00000000      1.00000000      1.00000000      1.00000000      1.00000000      1.00000000      1.00000000      1.00000000      1.00000000      1.00000000      1.00000000      1.00000000      1.00000000      1.00000000      1.00000000      1.00000000      1.00000000      1.00000000      1.00000000
      1.00000000      1.00000000      1.00000000      1.00000000      1.00000000      1.00000000      1.00000000      1.00000000      1.00000000      1.00000000      1.00000000      1.00000000      1.00000000</v>
    <i name="NUPDOWN">     -1.00000000</i>
    <i type="logical" name="LSORBIT"> F  </i>
    <v name="SAXIS">      0.00000000      0.00000000      1.00000000</v>
    <i type="logical" name="LSPIRAL"> F  </i>
    <v name="QSPIRAL">      0.00000000      0.00000000      0.00000000</v>
    <i type="logical" name="LZEROZ"> F  </i>
   </separator>
   <separator name="electronic exchange-correlation" >
    <i type="logical" name="LASPH"> F  </i>
    <i type="logical" name="LMETAGGA"> F  </i>
   </separator>
   <separator name="electronic convergence" >
    <i type="int" name="NELM">   500</i>
    <i type="int" name="NELMDL">     0</i>
    <i type="int" name="NELMIN">     4</i>
    <i name="ENINI">    400.00000000</i>
    <separator name="electronic convergence detail" >
     <i type="logical" name="LDIAG"> T  </i>
     <i type="logical" name="LSUBROT"> F  </i>
     <i name="WEIMIN">      0.00000000</i>
     <i name="EBREAK">      0.00000000</i>
     <i name="DEPER">      0.30000000</i>
     <i type="int" name="NRMM">     4</i>
     <i name="TIME">      0.40000000</i>
    </separator>
   </separator>
   <separator name="electronic mixer" >
    <i name="AMIX">      0.40000000</i>
    <i name="BMIX">      1.00000000</i>
    <i name="AMIN">      0.10000000</i>
    <i name="AMIX_MAG">      1.60000000</i>
    <i name="BMIX_MAG">      1.00000000</i>
    <separator name="electronic mixer details" >
     <i type="int" name="IMIX">     4</i>
     <i type="logical" name="MIXFIRST"> F  </i>
     <i type="int" name="MAXMIX">    40</i>
     <i name="WC">    100.00000000</i>
     <i type="int" name="INIMIX">     1</i>
     <i type="int" name="MIXPRE">     1</i>
     <i type="int" name="MREMOVE">     5</i>
    </separator>
   </separator>
   <separator name="electronic dipolcorrection" >
    <i type="logical" name="LDIPOL"> F  </i>
    <i type="logical" name="LMONO"> F  </i>
    <i type="int" name="IDIPOL">     0</i>
    <i name="EPSILON">      1.00000000</i>
    <v name="DIPOL">   -100.00000000   -100.00000000   -100.00000000</v>
    <i name="EFIELD">      0.00000000</i>
   </separator>
  </separator>
  <separator name="grids" >
   <i type="int" name="NGX">    48</i>
   <i type="int" name="NGY">    48</i>
   <i type="int" name="NGZ">    48</i>
   <i type="int" name="NGXF">    96</i>
   <i type="int" name="NGYF">    96</i>
   <i type="int" name="NGZF">    96</i>
   <i type="logical" name="ADDGRID"> F  </i>
  </separator>
  <separator name="ionic" >
   <i type="int" name="NSW">     0</i>
   <i type="int" name="IBRION">    -1</i>
   <i type="int" name="MDALGO">     0</i>
   <i type="int" name="ISIF">     2</i>
   <i name="PSTRESS">      0.00000000</i>
   <i name="EDIFFG">      0.00001000</i>
   <i type="int" name="NFREE">     0</i>
   <i name="POTIM">      0.50000000</i>
   <i name="SMASS">     -3.00000000</i>
   <i name="SCALEE">      1.00000000</i>
  </separator>
  <separator name="ionic md" >
   <i name="TEBEG">      0.00010000</i>
   <i name="TEEND">      0.00010000</i>
   <i type="int" name="NBLOCK">     1</i>
   <i type="int" name="KBLOCK">     1</i>
   <i type="int" name="NPACO">   256</i>
   <i name="APACO">     16.00000000</i>
  </separator>
  <separator name="symmetry" >
   <i type="int" name="ISYM">     2</i>
   <i name="SYMPREC">      0.00001000</i>
  </separator>
  <separator name="dos" >
   <i type="int" name="LORBIT">     0</i>
   <v name="RWIGS">     -1.00000000     -1.00000000</v>
   <i type="int" name="NEDOS">   301</i>
   <i name="EMIN">     10.00000000</i>
   <i name="EMAX">    -10.00000000</i>
   <i name="EFERMI">      0.00000000</i>
  </separator>
  <separator name="writing" >
   <i type="int" name="NWRITE">     0</i>
   <i type="logical" name="LWAVE"> F  </i>
   <i type="logical" name="LDOWNSAMPLE"> F  </i>
   <i type="logical" name="LCHARG"> F  </i>
   <i type="logical" name="LPARD"> F  </i>
   <i type="logical" name="LVTOT"> F  </i>
   <i type="logical" name="LVHAR"> T  </i>
   <i type="logical" name="LELF"> F  </i>
   <i type="logical" name="LOPTICS"> F  </i>
   <v name="STM">      0.00000000      0.00000000      0.00000000      0.00000000      0.00000000      0.00000000      0.00000000</v>
  </separator>
  <separator name="performance" >
   <i type="int" name="NPAR">     2</i>
   <i type="int" name="NSIM">     4</i>
   <i type="int" name="NBLK">    -1</i>
   <i type="logical" name="LPLANE"> T  </i>
   <i type="logical" name="LSCALAPACK"> T  </i>
   <i type="logical" name="LSCAAWARE"> F  </i>
   <i type="logical" name="LSCALU"> F  </i>
   <i type="logical" name="LASYNC"> F  </i>
   <i type="logical" name="LORBITALREAL"> F  </i>
  </separator>
  <separator name="miscellaneous" >
   <i type="int" name="IDIOT">     3</i>
   <i type="int" name="ISPECIAL">     0</i>
   <i type="logical" name="LMUSIC"> F  </i>
   <v name="POMASS">     16.00000000      1.00000000</v>
   <v name="DARWINR">      0.00000000      0.00000000</v>
   <v name="DARWINV">      1.00000000      1.00000000</v>
   <i type="logical" name="LCORR"> T  </i>
  </separator>
  <i type="logical" name="GGA_COMPAT"> T  </i>
  <i type="logical" name="LBERRY"> F  </i>
  <i type="int" name="ICORELEVEL">     0</i>
  <i type="logical" name="LDAU"> F  </i>
  <i type="int" name="I_CONSTRAINED_M">     0</i>
  <separator name="electronic exchange-correlation" >
   <i type="string" name="GGA">--</i>
   <i type="int" name="VOSKOWN">     0</i>
   <i type="logical" name="LHFCALC"> F  </i>
   <i type="string" name="PRECFOCK"></i>
   <i type="logical" name="LSYMGRAD"> F  </i>
   <i type="logical" name="LHFONE"> F  </i>
   <i type="logical" name="LRHFCALC"> F  </i>
   <i type="logical" name="LTHOMAS"> F  </i>
   <i type="logical" name="LMODELHF"> F  </i>
   <i name="ENCUT4O">     -1.00000000</i>
   <i type="int" name="EXXOEP">     0</i>
   <i type="int" name="FOURORBIT">     0</i>
   <i name="AEXX">      0.00000000</i>
   <i name="HFALPHA">      0.00000000</i>
   <i name="MCALPHA">      0.00000000</i>
   <i name="ALDAX">      1.00000000</i>
   <i name="AGGAX">      1.00000000</i>
   <i name="ALDAC">      1.00000000</i>
   <i name="AGGAC">      1.00000000</i>
   <i type="int" name="NKREDX">     1</i>
   <i type="int" name="NKREDY">     1</i>
   <i type="int" name="NKREDZ">     1</i>
   <i type="logical" name="SHIFTRED"> F  </i>
   <i type="logical" name="ODDONLY"> F  </i>
   <i type="logical" name="EVENONLY"> F  </i>
   <i type="int" name="LMAXFOCK">     0</i>
   <i type="int" name="NMAXFOCKAE">     0</i>
   <i type="logical" name="LFOCKAEDFT"> F  </i>
   <i name="HFSCREEN">      0.00000000</i>
   <i name="HFSCREENC">      0.00000000</i>
   <i type="int" name="NBANDSGWLOW">     0</i>
  </separator>
  <separator name="vdW DFT" >
   <i type="logical" name="LUSE_VDW"> F  </i>
   <i name="Zab_VDW">     -0.84910000</i>
   <i name="PARAM1">      0.12340000</i>
   <i name="PARAM2">      1.00000000</i>
   <i name="PARAM3">      0.00000000</i>
  </separator>
  <separator name="model GW" >
   <i type="int" name="MODEL_GW">     0</i>
   <i name="MODEL_EPS0">      6.09994528</i>
   <i name="MODEL_ALPHA">      1.00000000</i>
  </separator>
  <separator name="linear response parameters" >
   <i type="logical" name="LEPSILON"> F  </i>
   <i type="logical" name="LRPA"> F  </i>
   <i type="logical" name="LNABLA"> F  </i>
   <i type="logical" name="LVEL"> F  </i>
   <i type="int" name="KINTER">     0</i>
   <i name="CSHIFT">      0.10000000</i>
   <i name="OMEGAMAX">     -1.00000000</i>
   <i name="DEG_THRESHOLD">      0.00200000</i>
   <i name="RTIME">     -0.10000000</i>
   <i name="WPLASMAI">      0.00000000</i>
   <v name="DFIELD">      0.00000000      0.00000000      0.00000000</v>
   <v name="WPLASMA">      0.00000000      0.00000000      0.00000000      0.00000000      0.00000000      0.00000000      0.00000000      0.00000000      0.00000000</v>
  </separator>
  <separator name="orbital magnetization" >
   <i type="logical" name="NUCIND"> F  </i>
   <v name="MAGPOS">      0.00000000      0.00000000      0.00000000</v>
   <i type="logical" name="LNICSALL"> T  </i>
   <i type="logical" name="ORBITALMAG"> F  </i>
   <i type="logical" name="LMAGBLOCH"> F  </i>
   <i type="logical" name="LCHIMAG"> F  </i>
   <i type="logical" name="LGAUGE"> T  </i>
   <i type="int" name="MAGATOM">     0</i>
   <v name="MAGDIPOL">      0.00000000      0.00000000      0.00000000</v>
   <v name="AVECCONST">      0.00000000      0.00000000      0.00000000</v>
  </separator>
  <separator name="response functions" >
   <i type="logical" name="LADDER"> F  </i>
   <i type="logical" name="LRPAFORCE"> F  </i>
   <i type="logical" name="LFXC"> F  </i>
   <i type="logical" name="LHARTREE"> T  </i>
   <i type="int" name="IBSE">     0</i>
   <v type="int" name="KPOINT">    -1     0     0     0</v>
   <i type="logical" name="LTCTE"> F  </i>
   <i type="logical" name="LTETE"> F  </i>
   <i type="logical" name="LTRIPLET"> F  </i>
   <i type="logical" name="LFXCEPS"> F  </i>
   <i type="logical" name="LFXHEG"> F  </i>
   <i type="int" name="NATURALO">     2</i>
   <i type="logical" name="L2ORDER"> F  </i>
   <i type="logical" name="LMP2LT"> F  </i>
   <i type="logical" name="LUSEW"> F  </i>
   <i name="ENCUTGW">     -2.00000000</i>
   <i name="ENCUTGWSOFT">     -2.00000000</i>
   <i name="ENCUTLF">     -1.00000000</i>
   <i type="int" name="LMAXMP2">    -1</i>
   <i name="SCISSOR">      0.00000000</i>
   <i type="int" name="NOMEGA">     0</i>
   <i type="int" name="NOMEGAR">     0</i>
   <i type="int" name="NBANDSGW">    -1</i>
   <i type="int" name="NBANDSO">    -1</i>
   <i type="int" name="NBANDSV">    -1</i>
   <i type="int" name="NELM">   500</i>
   <i type="int" name="NELMHF">     1</i>
   <i type="int" name="DIM">     3</i>
   <i type="int" name="ANTIRES">     0</i>
   <i name="OMEGAMAX">    -30.00000000</i>
   <i name="OMEGAMIN">    -30.00000000</i>
   <i name="OMEGATL">   -200.00000000</i>
   <i type="int" name="OMEGAGRID">   140</i>
   <i name="CSHIFT">     -0.10000000</i>
   <i type="logical" name="SELFENERGY"> F  </i>
   <i type="logical" name="LSPECTRAL"> F  </i>
   <i type="logical" name="LSPECTRALGW"> F  </i>
   <i type="logical" name="LSINGLES"> F  </i>
   <i type="logical" name="LFERMIGW"> F  </i>
   <i type="logical" name="ODDONLYGW"> F  </i>
   <i type="logical" name="EVENONLYGW"> F  </i>
   <i type="int" name="NKREDLFX">     1</i>
   <i type="int" name="NKREDLFY">     1</i>
   <i type="int" name="NKREDLFZ">     1</i>
   <i type="int" name="MAXMEM">  2800</i>
   <i type="int" name="TELESCOPE">     0</i>
   <i type="int" name="TAUPAR">     1</i>
   <i type="int" name="OMEGAPAR">    -1</i>
   <i name="LAMBDA">      1.00000000</i>
  </separator>
  <separator name="External order field" >
   <i name="OFIELD_KAPPA">      0.00000000</i>
   <v name="OFIELD_K">      0.00000000      0.00000000      0.00000000</v>
   <i name="OFIELD_Q6_NEAR">      0.00000000</i>
   <i name="OFIELD_Q6_FAR">      0.00000000</i>
   <i name="OFIELD_A">      0.00000000</i>
  </separator>
 </parameters>
 <atominfo>
  <atoms>      93 </atoms>
  <types>       2 </types>
  <array name="atoms" >
   <dimension dim="1">ion</dimension>
   <field type="string">element</field>
   <field type="int">atomtype</field>
   <set>
    <rc><c>O </c><c>   1</c></rc>
    <rc><c>O </c><c>   1</c></rc>
    <rc><c>O </c><c>   1</c></rc>
    <rc><c>O </c><c>   1</c></rc>
    <rc><c>O </c><c>   1</c></rc>
    <rc><c>O </c><c>   1</c></rc>
    <rc><c>O </c><c>   1</c></rc>
    <rc><c>O </c><c>   1</c></rc>
    <rc><c>O </c><c>   1</c></rc>
    <rc><c>O </c><c>   1</c></rc>
    <rc><c>O </c><c>   1</c></rc>
    <rc><c>O </c><c>   1</c></rc>
    <rc><c>O </c><c>   1</c></rc>
    <rc><c>O </c><c>   1</c></rc>
    <rc><c>O </c><c>   1</c></rc>
    <rc><c>O </c><c>   1</c></rc>
    <rc><c>O </c><c>   1</c></rc>
    <rc><c>O </c><c>   1</c></rc>
    <rc><c>O </c><c>   1</c></rc>
    <rc><c>O </c><c>   1</c></rc>
    <rc><c>O </c><c>   1</c></rc>
    <rc><c>O </c><c>   1</c></rc>
    <rc><c>O </c><c>   1</c></rc>
    <rc><c>O </c><c>   1</c></rc>
    <rc><c>O </c><c>   1</c></rc>
    <rc><c>O </c><c>   1</c></rc>
    <rc><c>O </c><c>   1</c></rc>
    <rc><c>O </c><c>   1</c></rc>
    <rc><c>O </c><c>   1</c></rc>
    <rc><c>O </c><c>   1</c></rc>
    <rc><c>O </c><c>   1</c></rc>
    <rc><c>H </c><c>   2</c></rc>
    <rc><c>H </c><c>   2</c></rc>
    <rc><c>H </c><c>   2</c></rc>
    <rc><c>H </c><c>   2</c></rc>
    <rc><c>H </c><c>   2</c></rc>
    <rc><c>H </c><c>   2</c></rc>
    <rc><c>H </c><c>   2</c></rc>
    <rc><c>H </c><c>   2</c></rc>
    <rc><c>H </c><c>   2</c></rc>
    <rc><c>H </c><c>   2</c></rc>
    <rc><c>H </c><c>   2</c></rc>
    <rc><c>H </c><c>   2</c></rc>
    <rc><c>H </c><c>   2</c></rc>
    <rc><c>H </c><c>   2</c></rc>
    <rc><c>H </c><c>   2</c></rc>
    <rc><c>H </c><c>   2</c></rc>
    <rc><c>H </c><c>   2</c></rc>
    <rc><c>H </c><c>   2</c></rc>
    <rc><c>H </c><c>   2</c></rc>
    <rc><c>H </c><c>   2</c></rc>
    <rc><c>H </c><c>   2</c></rc>
    <rc><c>H </c><c>   2</c></rc>
    <rc><c>H </c><c>   2</c></rc>
    <rc><c>H </c><c>   2</c></rc>
    <rc><c>H </c><c>   2</c></rc>
    <rc><c>H </c><c>   2</c></rc>
    <rc><c>H </c><c>   2</c></rc>
    <rc><c>H </c><c>   2</c></rc>
    <rc><c>H </c><c>   2</c></rc>
    <rc><c>H </c><c>   2</c></rc>
    <rc><c>H </c><c>   2</c></rc>
    <rc><c>H </c><c>   2</c></rc>
    <rc><c>H </c><c>   2</c></rc>
    <rc><c>H </c><c>   2</c></rc>
    <rc><c>H </c><c>   2</c></rc>
    <rc><c>H </c><c>   2</c></rc>
    <rc><c>H </c><c>   2</c></rc>
    <rc><c>H </c><c>   2</c></rc>
    <rc><c>H </c><c>   2</c></rc>
    <rc><c>H </c><c>   2</c></rc>
    <rc><c>H </c><c>   2</c></rc>
    <rc><c>H </c><c>   2</c></rc>
    <rc><c>H </c><c>   2</c></rc>
    <rc><c>H </c><c>   2</c></rc>
    <rc><c>H </c><c>   2</c></rc>
    <rc><c>H </c><c>   2</c></rc>
    <rc><c>H </c><c>   2</c></rc>
    <rc><c>H </c><c>   2</c></rc>
    <rc><c>H </c><c>   2</c></rc>
    <rc><c>H </c><c>   2</c></rc>
    <rc><c>H </c><c>   2</c></rc>
    <rc><c>H </c><c>   2</c></rc>
    <rc><c>H </c><c>   2</c></rc>
    <rc><c>H </c><c>   2</c></rc>
    <rc><c>H </c><c>   2</c></rc>
    <rc><c>H </c><c>   2</c></rc>
    <rc><c>H </c><c>   2</c></rc>
    <rc><c>H </c><c>   2</c></rc>
    <rc><c>H </c><c>   2</c></rc>
    <rc><c>H </c><c>   2</c></rc>
    <rc><c>H </c><c>   2</c></rc>
    <rc><c>H </c><c>   2</c></rc>
   </set>
  </array>
  <array name="atomtypes" >
   <dimension dim="1">type</dimension>
   <field type="int">atomspertype</field>
   <field type="string">element</field>
   <field>mass</field>
   <field>valence</field>
   <field type="string">pseudopotential</field>
   <set>
    <rc><c>  31</c><c>O </c><c>     16.00000000</c><c>      6.00000000</c><c>  PAW_PBE O 08Apr2002                   </c></rc>
    <rc><c>  62</c><c>H </c><c>      1.00000000</c><c>      1.00000000</c><c>  PAW_PBE H 15Jun2001                   </c></rc>
   </set>
  </array>
 </atominfo>
 <structure name="initialpos" >
  <crystal>
   <varray name="basis" >
    <v>       9.81490000       0.00000000       0.00000000 </v>
    <v>       0.00000000       9.81490000       0.00000000 </v>
    <v>       0.00000000       0.00000000       9.81490000 </v>
   </varray>
   <i name="volume">    945.49151840 </i>
   <varray name="rec_basis" >
    <v>       0.10188591       0.00000000       0.00000000 </v>
    <v>       0.00000000       0.10188591       0.00000000 </v>
    <v>       0.00000000       0.00000000       0.10188591 </v>
   </varray>
  </crystal>
  <varray name="positions" >
   <v>       0.58007825       0.38460911       0.13049547 </v>
   <v>       0.12678682       0.81065217       0.60808465 </v>
   <v>       0.08636349       0.56304700       0.75225626 </v>
   <v>       0.06976648       0.38309815       0.40746314 </v>
   <v>       0.74868007       0.01863340       0.69936423 </v>
   <v>       0.72029975       0.39280074       0.75736279 </v>
   <v>       0.57451324       0.19109313       0.79056536 </v>
   <v>       0.01370793       0.21352026       0.18370029 </v>
   <v>       0.27985817       0.85774893       0.97801241 </v>
   <v>       0.83990973       0.39263569       0.02211454 </v>
   <v>       0.27231454       0.21278362       0.70574738 </v>
   <v>       0.96295194       0.33092747       0.67114591 </v>
   <v>       0.72686426       0.81642197       0.87132829 </v>
   <v>       0.67680262       0.04388817       0.43445476 </v>
   <v>       0.34579364       0.60987274       0.85027560 </v>
   <v>       0.23183629       0.13718836       0.95067092 </v>
   <v>       0.46618203       0.14060969       0.09200511 </v>
   <v>       0.68321124       0.65365210       0.41884889 </v>
   <v>       0.84399230       0.94896535       0.23728107 </v>
   <v>       0.34175488       0.36316621       0.44007886 </v>
   <v>       0.41295989       0.11879184       0.37907671 </v>
   <v>       0.00387014       0.04610266       0.63075019 </v>
   <v>       0.14530764       0.03631010       0.37328450 </v>
   <v>       0.37380921       0.83351231       0.49986245 </v>
   <v>       0.35358893       0.54351038       0.11275815 </v>
   <v>       0.46558702       0.73509664       0.26201999 </v>
   <v>       0.55480851       0.65211362       0.71194510 </v>
   <v>       0.63735036       0.35655891       0.39870809 </v>
   <v>       0.93459210       0.65359708       0.95178575 </v>
   <v>       0.60185534       0.91056037       0.09829820 </v>
   <v>       0.97184383       0.66475766       0.39946102 </v>
   <v>       0.53392189       0.47011483       0.12172819 </v>
   <v>       0.67847253       0.40687220       0.08189589 </v>
   <v>       0.06793650       0.79717572       0.52857390 </v>
   <v>       0.11333585       0.72500586       0.66863748 </v>
   <v>       0.04911532       0.46629105       0.74899286 </v>
   <v>       0.16984585       0.57384283       0.80112584 </v>
   <v>       0.17233390       0.40691194       0.40749575 </v>
   <v>       0.02922760       0.35278709       0.50127867 </v>
   <v>       0.68359229       0.01474585       0.61904553 </v>
   <v>       0.71982394       0.93860233       0.74848037 </v>
   <v>       0.67690450       0.46130068       0.70385129 </v>
   <v>       0.65027153       0.32434869       0.80607342 </v>
   <v>       0.51381369       0.16745662       0.86700017 </v>
   <v>       0.62553668       0.11494259       0.78477213 </v>
   <v>       0.93805704       0.25654872       0.15035303 </v>
   <v>       0.04599456       0.25845195       0.27862739 </v>
   <v>       0.24892154       0.96659579       0.96885317 </v>
   <v>       0.23119848       0.81359871       0.05802484 </v>
   <v>       0.80436377       0.39975649       0.92926622 </v>
   <v>       0.86107347       0.49410896       0.02345821 </v>
   <v>       0.18111137       0.19562808       0.69138453 </v>
   <v>       0.29520932       0.27447045       0.63237629 </v>
   <v>       0.98620404       0.23785877       0.65628585 </v>
[...]
       <r>   -22.0274    18.1528    27.6729 </r>
       <r>   -21.9115    28.6861    31.0004 </r>
       <r>   -21.7957    33.6204    34.9006 </r>
       <r>   -21.6798    23.6215    37.6379 </r>
       <r>   -21.5639    15.5276    39.4451 </r>
       <r>   -21.4481    20.4122    41.8148 </r>
       <r>   -21.3322    28.7269    45.1500 </r>
       <r>   -21.2163    29.8815    48.6123 </r>
       <r>   -21.1005    18.8773    50.8010 </r>
       <r>   -20.9846    11.4567    52.1296 </r>
       <r>   -20.8687    11.6632    53.4888 </r>
       <r>   -20.7528    13.6529    55.0723 </r>
       <r>   -20.6370    14.2704    56.7277 </r>
       <r>   -20.5211     9.0037    57.7709 </r>
       <r>   -20.4052     1.8842    57.9903 </r>
       <r>   -20.2894     1.2842    58.1409 </r>
       <r>   -20.1735     6.3425    58.8781 </r>
       <r>   -20.0576     7.7598    59.7772 </r>
       <r>   -19.9418     1.7864    59.9842 </r>
       <r>   -19.8259     0.8459    60.0822 </r>
       <r>   -19.7100     4.6127    60.6191 </r>
       <r>   -19.5942     8.8078    61.6396 </r>
       <r>   -19.4783     2.7445    61.9576 </r>
       <r>   -19.3624     0.3292    61.9957 </r>
       <r>   -19.2466     0.0000    62.0000 </r>
       <r>   -19.1307     0.0000    62.0000 </r>
       <r>   -19.0148     0.0000    62.0000 </r>
       <r>   -18.8990     0.0000    62.0000 </r>
       <r>   -18.7831     0.0000    62.0000 </r>
       <r>   -18.6672     0.0000    62.0000 </r>
       <r>   -18.5514     0.0000    62.0000 </r>
       <r>   -18.4355     0.0000    62.0000 </r>
       <r>   -18.3196     0.0000    62.0000 </r>
       <r>   -18.2038     0.0000    62.0000 </r>
       <r>   -18.0879     0.0000    62.0000 </r>
       <r>   -17.9720     0.0000    62.0000 </r>
       <r>   -17.8562     0.0000    62.0000 </r>
       <r>   -17.7403     0.0000    62.0000 </r>
       <r>   -17.6244     0.0000    62.0000 </r>
       <r>   -17.5086     0.0000    62.0000 </r>
       <r>   -17.3927     0.0000    62.0000 </r>
       <r>   -17.2768     0.0000    62.0000 </r>
       <r>   -17.1610     0.0000    62.0000 </r>
       <r>   -17.0451     0.0000    62.0000 </r>
       <r>   -16.9292     0.0000    62.0000 </r>
       <r>   -16.8134     0.0000    62.0000 </r>
       <r>   -16.6975     0.0000    62.0000 </r>
       <r>   -16.5816     0.0000    62.0000 </r>
       <r>   -16.4658     0.0000    62.0000 </r>
       <r>   -16.3499     0.0000    62.0000 </r>
       <r>   -16.2340     0.0000    62.0000 </r>
       <r>   -16.1181     0.0000    62.0000 </r>
       <r>   -16.0023     0.0000    62.0000 </r>
       <r>   -15.8864     0.0000    62.0000 </r>
       <r>   -15.7705     0.0000    62.0000 </r>
       <r>   -15.6547     0.0000    62.0000 </r>
       <r>   -15.5388     0.0000    62.0000 </r>
       <r>   -15.4229     0.0000    62.0000 </r>
       <r>   -15.3071     0.0000    62.0000 </r>
       <r>   -15.1912     0.0000    62.0000 </r>
       <r>   -15.0753     0.0000    62.0000 </r>
       <r>   -14.9595     0.0000    62.0000 </r>
       <r>   -14.8436     0.0000    62.0000 </r>
       <r>   -14.7277     0.0000    62.0000 </r>
       <r>   -14.6119     0.0000    62.0000 </r>
       <r>   -14.4960     0.0000    62.0000 </r>
       <r>   -14.3801     0.0000    62.0000 </r>
       <r>   -14.2643     0.0000    62.0000 </r>
       <r>   -14.1484     0.0000    62.0000 </r>
       <r>   -14.0325     0.0000    62.0000 </r>
       <r>   -13.9167     0.0000    62.0000 </r>
       <r>   -13.8008     0.0000    62.0000 </r>
       <r>   -13.6849     0.0000    62.0000 </r>
       <r>   -13.5691     0.0000    62.0000 </r>
       <r>   -13.4532     0.0000    62.0000 </r>
       <r>   -13.3373     0.0000    62.0000 </r>
       <r>   -13.2215     0.0000    62.0000 </r>
       <r>   -13.1056     0.0000    62.0000 </r>
       <r>   -12.9897     0.0000    62.0000 </r>
       <r>   -12.8739     0.0000    62.0000 </r>
       <r>   -12.7580     0.0000    62.0000 </r>
       <r>   -12.6421     0.0000    62.0000 </r>
       <r>   -12.5263     0.0000    62.0000 </r>
       <r>   -12.4104     0.0000    62.0000 </r>
       <r>   -12.2945     0.0000    62.0000 </r>
       <r>   -12.1787     0.0022    62.0003 </r>
       <r>   -12.0628     0.0205    62.0026 </r>
       <r>   -11.9469     0.2115    62.0271 </r>
       <r>   -11.8311     1.9889    62.2576 </r>
       <r>   -11.7152    11.7450    63.6184 </r>
       <r>   -11.5993    19.5870    65.8879 </r>
       <r>   -11.4835    13.4548    67.4469 </r>
       <r>   -11.3676     4.4224    67.9593 </r>
       <r>   -11.2517     2.4241    68.2470 </r>
       <r>   -11.1358     8.9522    69.2905 </r>
       <r>   -11.0200    12.1500    70.6983 </r>
       <r>   -10.9041     9.0594    71.7480 </r>
       <r>   -10.7882     2.4187    72.0282 </r>
       <r>   -10.6724     4.0112    72.4944 </r>
       <r>   -10.5565    16.2567    74.3807 </r>
       <r>   -10.4406    23.7041    77.1272 </r>
       <r>   -10.3248    21.0885    79.5707 </r>
       <r>   -10.2089    25.0545    82.4744 </r>
       <r>   -10.0930    21.4775    84.9675 </r>
       <r>    -9.9772    18.6991    87.1353 </r>
       <r>    -9.8613    33.0244    90.9681 </r>
       <r>    -9.7454    30.0077    94.4475 </r>
       <r>    -9.6296    23.1477    97.1311 </r>
       <r>    -9.5137    27.3655   100.3064 </r>
       <r>    -9.3978    22.4428   102.9129 </r>
       <r>    -9.2820    10.4479   104.1262 </r>
       <r>    -9.1661    13.6697   105.7124 </r>
       <r>    -9.0502    17.1925   107.7075 </r>
       <r>    -8.9344    14.0316   109.3346 </r>
       <r>    -8.8185    24.7798   112.2058 </r>
       <r>    -8.7026    25.6675   115.1852 </r>
       <r>    -8.5868    27.2501   118.3426 </r>
       <r>    -8.4709    15.6916   120.1695 </r>
       <r>    -8.3550    11.1923   121.4698 </r>
       <r>    -8.2392     5.9963   122.1722 </r>
       <r>    -8.1233     9.1768   123.2375 </r>
       <r>    -8.0074    13.8465   124.8446 </r>
       <r>    -7.8916    22.3701   127.4370 </r>
       <r>    -7.7757    25.3524   130.3745 </r>
       <r>    -7.6598    19.2216   132.6033 </r>
       <r>    -7.5440    15.8843   134.4468 </r>
       <r>    -7.4281    15.5623   136.2529 </r>
       <r>    -7.3122    17.5324   138.2870 </r>
       <r>    -7.1964    23.4937   141.0122 </r>
       <r>    -7.0805    24.2604   143.8270 </r>
       <r>    -6.9646    23.7280   146.5798 </r>
       <r>    -6.8488    29.7992   150.0360 </r>
       <r>    -6.7329    29.0884   153.4100 </r>
       <r>    -6.6170    20.3809   155.7748 </r>
       <r>    -6.5011    13.9830   157.3996 </r>
       <r>    -6.3853    10.3916   158.6084 </r>
       <r>    -6.2694    18.5867   160.7657 </r>
       <r>    -6.1535    22.1514   163.3345 </r>
       <r>    -6.0377    21.9561   165.8792 </r>
       <r>    -5.9218    19.9844   168.1980 </r>
       <r>    -5.8059    20.9342   170.6262 </r>
       <r>    -5.6901    24.0453   173.4160 </r>
       <r>    -5.5742    27.4422   176.5999 </r>
       <r>    -5.4583    24.1285   179.3991 </r>
       <r>    -5.3425    20.5750   181.7862 </r>
       <r>    -5.2266    28.7581   185.1222 </r>
       <r>    -5.1107    32.0033   188.8342 </r>
       <r>    -4.9949    24.8420   191.7135 </r>
       <r>    -4.8790    17.1559   193.7047 </r>
       <r>    -4.7631    18.7715   195.8857 </r>
       <r>    -4.6473    33.5401   199.7763 </r>
       <r>    -4.5314    37.6736   204.1453 </r>
       <r>    -4.4155    39.7910   208.7561 </r>
       <r>    -4.2997    40.5494   213.4615 </r>
       <r>    -4.1838    43.3758   218.4922 </r>
       <r>    -4.0679    47.2606   223.9746 </r>
       <r>    -3.9521    39.2245   228.5265 </r>
       <r>    -3.8362    26.8150   231.6398 </r>
       <r>    -3.7203    25.5365   234.6079 </r>
       <r>    -3.6045    31.9148   238.3100 </r>
       <r>    -3.4886    22.0930   240.8736 </r>
       <r>    -3.3727    13.4566   242.4335 </r>
       <r>    -3.2569    11.0156   243.7143 </r>
       <r>    -3.1410     9.0739   244.7682 </r>
       <r>    -3.0251    16.8070   246.7172 </r>
       <r>    -2.9093     9.3485   247.8049 </r>
       <r>    -2.7934     1.5080   247.9796 </r>
       <r>    -2.6775     0.1240   247.9984 </r>
       <r>    -2.5617     0.0000   248.0000 </r>
       <r>    -2.4458     0.0000   248.0000 </r>
       <r>    -2.3299     0.0000   248.0000 </r>
       <r>    -2.2141     0.0000   248.0000 </r>
       <r>    -2.0982     0.0000   248.0000 </r>
       <r>    -1.9823     0.0000   248.0000 </r>
       <r>    -1.8664     0.0000   248.0000 </r>
       <r>    -1.7506     0.0000   248.0000 </r>
       <r>    -1.6347     0.0000   248.0000 </r>
       <r>    -1.5188     0.0000   248.0000 </r>
       <r>    -1.4030     0.0000   248.0000 </r>
       <r>    -1.2871     0.0000   248.0000 </r>
       <r>    -1.1712     0.0000   248.0000 </r>
       <r>    -1.0554     0.0000   248.0000 </r>
       <r>    -0.9395     0.0000   248.0000 </r>
       <r>    -0.8236     0.0000   248.0000 </r>
       <r>    -0.7078     0.0000   248.0000 </r>
       <r>    -0.5919     0.0000   248.0000 </r>
       <r>    -0.4760     0.0000   248.0000 </r>
       <r>    -0.3602     0.0000   248.0000 </r>
       <r>    -0.2443     0.0000   248.0000 </r>
       <r>    -0.1284     0.0000   248.0000 </r>
       <r>    -0.0126     0.0000   248.0000 </r>
       <r>     0.1033     0.0000   248.0000 </r>
       <r>     0.2192     0.0000   248.0000 </r>
       <r>     0.3350     0.0002   248.0000 </r>
       <r>     0.4509     0.0022   248.0003 </r>
       <r>     0.5668     0.0218   248.0028 </r>
       <r>     0.6826     0.1800   248.0237 </r>
       <r>     0.7985     0.7743   248.1134 </r>
       <r>     0.9144     1.6358   248.3029 </r>
       <r>     1.0302     2.5818   248.6021 </r>
       <r>     1.1461     3.4539   249.0024 </r>
       <r>     1.2620     3.5600   249.4150 </r>
       <r>     1.3778     2.9606   249.7584 </r>
       <r>     1.4937     2.2603   250.0210 </r>
       <r>     1.6096     2.3950   250.2991 </r>
       <r>     1.7254     3.8171   250.7419 </r>
       <r>     1.8413     4.9724   251.3183 </r>
       <r>     1.9572     4.4680   251.8363 </r>
       <r>     2.0730     4.6907   252.3802 </r>
       <r>     2.1889     5.8965   253.0643 </r>
       <r>     2.3048     6.0348   253.7644 </r>
       <r>     2.4206     6.2304   254.4868 </r>
       <r>     2.5365     6.7064   255.2648 </r>
       <r>     2.6524     7.5509   256.1407 </r>
       <r>     2.7682     7.8255   257.0484 </r>
       <r>     2.8841     8.1864   257.9979 </r>
       <r>     3.0000     7.6485   258.8854 </r>
       <r>     3.1159     8.5825   259.8810 </r>
       <r>     3.2317     9.4374   260.9758 </r>
       <r>     3.3476     9.7681   262.1087 </r>
       <r>     3.4635     9.6791   263.2314 </r>
       <r>     3.5793    10.0777   264.4005 </r>
       <r>     3.6952    11.0044   265.6771 </r>
       <r>     3.8111    11.2096   266.9773 </r>
       <r>     3.9269    12.1327   268.3846 </r>
       <r>     4.0428    13.5120   269.9521 </r>
       <r>     4.1587    14.4932   271.6329 </r>
       <r>     4.2745    14.5161   273.3165 </r>
       <r>     4.3904    13.6892   274.9047 </r>
       <r>     4.5063    13.9009   276.5176 </r>
       <r>     4.6221    14.7841   278.2331 </r>
       <r>     4.7380    14.8464   279.9553 </r>
       <r>     4.8539    15.1127   281.7083 </r>
       <r>     4.9697    15.7807   283.5390 </r>
       <r>     5.0856    17.2008   285.5344 </r>
       <r>     5.2015    19.7416   287.8241 </r>
       <r>     5.3173    20.4934   290.2008 </r>
       <r>     5.4332    20.3217   292.5577 </r>
       <r>     5.5491    20.6378   294.9519 </r>
       <r>     5.6649    22.7332   297.5893 </r>
       <r>     5.7808    22.9821   300.2554 </r>
       <r>     5.8967    22.6972   302.8882 </r>
       <r>     6.0125    23.1749   305.5771 </r>
       <r>     6.1284    25.0020   308.4778 </r>
       <r>     6.2443    26.6276   311.5665 </r>
       <r>     6.3601    27.5340   314.7604 </r>
       <r>     6.4760    27.0091   317.8938 </r>
       <r>     6.5919    26.4744   320.9650 </r>
       <r>     6.7077    25.0262   323.8688 </r>
       <r>     6.8236    24.7925   326.7454 </r>
       <r>     6.9395    24.7881   329.6218 </r>
       <r>     7.0553    24.1329   332.4218 </r>
       <r>     7.1712    21.5777   334.9257 </r>
       <r>     7.2871    19.2784   337.1634 </r>
       <r>     7.4029    18.0331   339.2567 </r>
       <r>     7.5188    15.7702   341.0874 </r>
       <r>     7.6347    12.6440   342.5553 </r>
       <r>     7.7506     8.2382   343.5128 </r>
       <r>     7.8664     3.2953   343.8971 </r>
       <r>     7.9823     0.7316   343.9841 </r>
       <r>     8.0982     0.1071   343.9980 </r>
       <r>     8.2140     0.0110   343.9998 </r>
       <r>     8.3299     0.0007   344.0000 </r>
       <r>     8.4458     0.0000   344.0000 </r>
       <r>     8.5616     0.0000   344.0000 </r>
       <r>     8.6775     0.0000   344.0000 </r>
       <r>     8.7934     0.0000   344.0000 </r>
       <r>     8.9092     0.0000   344.0000 </r>
       <r>     9.0251     0.0000   344.0000 </r>
       <r>     9.1410     0.0000   344.0000 </r>
       <r>     9.2568     0.0000   344.0000 </r>
       <r>     9.3727     0.0000   344.0000 </r>
       <r>     9.4886     0.0000   344.0000 </r>
       <r>     9.6044     0.0000   344.0000 </r>
      </set>
     </set>
    </array>
   </total>
  </dos>
 </calculation>
 <structure name="finalpos" >
  <crystal>
   <varray name="basis" >
    <v>       9.81490000       0.00000000       0.00000000 </v>
    <v>       0.00000000       9.81490000       0.00000000 </v>
    <v>       0.00000000       0.00000000       9.81490000 </v>
   </varray>
   <i name="volume">    945.49151840 </i>
   <varray name="rec_basis" >
    <v>       0.10188591       0.00000000       0.00000000 </v>
    <v>       0.00000000       0.10188591       0.00000000 </v>
    <v>       0.00000000       0.00000000       0.10188591 </v>
   </varray>
  </crystal>
  <varray name="positions" >
   <v>       0.58007825       0.38460911       0.13049547 </v>
   <v>       0.12678682       0.81065217       0.60808465 </v>
   <v>       0.08636349       0.56304700       0.75225626 </v>
   <v>       0.06976648       0.38309815       0.40746314 </v>
   <v>       0.74868007       0.01863340       0.69936423 </v>
   <v>       0.72029975       0.39280074       0.75736279 </v>
   <v>       0.57451324       0.19109313       0.79056536 </v>
   <v>       0.01370793       0.21352026       0.18370029 </v>
   <v>       0.27985817       0.85774893       0.97801241 </v>
   <v>       0.83990973       0.39263569       0.02211454 </v>
   <v>       0.27231454       0.21278362       0.70574738 </v>
   <v>       0.96295194       0.33092747       0.67114591 </v>
   <v>       0.72686426       0.81642197       0.87132829 </v>
   <v>       0.67680262       0.04388817       0.43445476 </v>
   <v>       0.34579364       0.60987274       0.85027560 </v>
   <v>       0.23183629       0.13718836       0.95067092 </v>
   <v>       0.46618203       0.14060969       0.09200511 </v>
   <v>       0.68321124       0.65365210       0.41884889 </v>
   <v>       0.84399230       0.94896535       0.23728107 </v>
   <v>       0.34175488       0.36316621       0.44007886 </v>
   <v>       0.41295989       0.11879184       0.37907671 </v>
   <v>       0.00387014       0.04610266       0.63075019 </v>
   <v>       0.14530764       0.03631010       0.37328450 </v>
   <v>       0.37380921       0.83351231       0.49986245 </v>
   <v>       0.35358893       0.54351038       0.11275815 </v>
   <v>       0.46558702       0.73509664       0.26201999 </v>
   <v>       0.55480851       0.65211362       0.71194510 </v>
   <v>       0.63735036       0.35655891       0.39870809 </v>
   <v>       0.93459210       0.65359708       0.95178575 </v>
   <v>       0.60185534       0.91056037       0.09829820 </v>
   <v>       0.97184383       0.66475766       0.39946102 </v>
   <v>       0.53392189       0.47011483       0.12172819 </v>
   <v>       0.67847253       0.40687220       0.08189589 </v>
   <v>       0.06793650       0.79717572       0.52857390 </v>
   <v>       0.11333585       0.72500586       0.66863748 </v>
   <v>       0.04911532       0.46629105       0.74899286 </v>
   <v>       0.16984585       0.57384283       0.80112584 </v>
   <v>       0.17233390       0.40691194       0.40749575 </v>
   <v>       0.02922760       0.35278709       0.50127867 </v>
   <v>       0.68359229       0.01474585       0.61904553 </v>
   <v>       0.71982394       0.93860233       0.74848037 </v>
   <v>       0.67690450       0.46130068       0.70385129 </v>
   <v>       0.65027153       0.32434869       0.80607342 </v>
   <v>       0.51381369       0.16745662       0.86700017 </v>
   <v>       0.62553668       0.11494259       0.78477213 </v>
   <v>       0.93805704       0.25654872       0.15035303 </v>
   <v>       0.04599456       0.25845195       0.27862739 </v>
   <v>       0.24892154       0.96659579       0.96885317 </v>
   <v>       0.23119848       0.81359871       0.05802484 </v>
   <v>       0.80436377       0.39975649       0.92926622 </v>
   <v>       0.86107347       0.49410896       0.02345821 </v>
   <v>       0.18111137       0.19562808       0.69138453 </v>
   <v>       0.29520932       0.27447045       0.63237629 </v>
   <v>       0.98620404       0.23785877       0.65628585 </v>
   <v>       0.86185086       0.31013969       0.68837278 </v>
   <v>       0.68515624       0.84520780       0.95886866 </v>
   <v>       0.79334481       0.74519353       0.91598804 </v>
   <v>       0.69119400       0.14180583       0.41404192 </v>
   <v>       0.56448155       0.05005176       0.41576379 </v>
   <v>       0.35774078       0.57015354       0.95608412 </v>
   <v>       0.30391751       0.70257160       0.88833304 </v>
   <v>       0.23555003       0.19278036       0.85661494 </v>
   <v>       0.16600984       0.16403631       0.01131341 </v>
   <v>       0.37455603       0.13440178       0.05815057 </v>
   <v>       0.47637164       0.23650470       0.11586058 </v>
   <v>       0.63744511       0.62958665       0.52436092 </v>
   <v>       0.60542848       0.67333850       0.36715300 </v>
   <v>       0.90384558       0.03254949       0.18473647 </v>
   <v>       0.75727720       0.98221531       0.30407646 </v>
   <v>       0.40941222       0.42243018       0.46817899 </v>
   <v>       0.39042374       0.26745968       0.42104759 </v>
   <v>       0.30998482       0.09806376       0.36380401 </v>
   <v>       0.42935435       0.10503316       0.27520403 </v>
   <v>       0.90348083       0.02188733       0.64285525 </v>
   <v>       0.06159788       0.96544570       0.63020306 </v>
   <v>       0.06778592       0.03557499       0.29138860 </v>
   <v>       0.07479383       0.04896025       0.46723044 </v>
   <v>       0.29247878       0.79828118       0.55735565 </v>
   <v>       0.44472791       0.81523908       0.57338944 </v>
   <v>       0.39424039       0.61848720       0.15811776 </v>
   <v>       0.29154856       0.47299922       0.16756972 </v>
   <v>       0.43123822       0.75506220       0.34911512 </v>
   <v>       0.48721943       0.80684673       0.19920937 </v>
   <v>       0.59820375       0.69143241       0.79808862 </v>
   <v>       0.46264251       0.64022659       0.75558488 </v>
   <v>       0.61774445       0.37702473       0.29917167 </v>
   <v>       0.66952185       0.44447727       0.39682422 </v>
   <v>       0.00709829       0.61884584       0.85887783 </v>
   <v>       0.99045115       0.70820487       0.02754435 </v>
   <v>       0.55744531       0.00997320       0.08945674 </v>
   <v>       0.68976658       0.91840355       0.12517601 </v>
   <v>       0.87000071       0.65332199       0.40840151 </v>
   <v>       0.00517479       0.57181530       0.40702198 </v>
  </varray>
 </structure>
</modeling>
