  93  93   0   0
  0.1016658E+02  0.9814900E-09  0.9814900E-09  0.9814900E-09  0.5000000E-15
  1.000000000000000E-004
  CAR 
 ice                                     
      9.69192687    -25.44649191  301     -1.90352256      1.00000000
    -25.446  0.0000E+00  0.0000E+00
    -25.329  0.0000E+00  0.0000E+00
    -25.212  0.0000E+00  0.0000E+00
    -25.095  0.0000E+00  0.0000E+00
    -24.978  0.0000E+00  0.0000E+00
    -24.861  0.0000E+00  0.0000E+00
    -24.744  0.0000E+00  0.0000E+00
    -24.627  0.0000E+00  0.0000E+00
    -24.509  0.0000E+00  0.0000E+00
    -24.392  0.0000E+00  0.0000E+00
    -24.275  0.3337E-02  0.3909E-03
    -24.158  0.3133E-01  0.4061E-02
    -24.041  0.3194E+00  0.4147E-01
    -23.924  0.2732E+01  0.3614E+00
    -23.807  0.8827E+01  0.1395E+01
    -23.690  0.4699E+01  0.1946E+01
    -23.572  0.2562E+01  0.2246E+01
    -23.455  0.1181E+02  0.3629E+01
    -23.338  0.1883E+02  0.5836E+01
    -23.221  0.1407E+02  0.7484E+01
    -23.104  0.1246E+02  0.8943E+01
    -22.987  0.1691E+02  0.1093E+02
    -22.870  0.1460E+02  0.1264E+02
    -22.753  0.1157E+02  0.1400E+02
    -22.635  0.1324E+02  0.1555E+02
    -22.518  0.2236E+02  0.1817E+02
    -22.401  0.1908E+02  0.2041E+02
    -22.284  0.2575E+02  0.2342E+02
    -22.167  0.2631E+02  0.2651E+02
    -22.050  0.2021E+02  0.2888E+02
    -21.933  0.2884E+02  0.3225E+02
    -21.816  0.3643E+02  0.3653E+02
    -21.698  0.2500E+02  0.3946E+02
    -21.581  0.1379E+02  0.4108E+02
    -21.464  0.2226E+02  0.4369E+02
    -21.347  0.1998E+02  0.4604E+02
    -21.230  0.1327E+02  0.4759E+02
    -21.113  0.9198E+01  0.4867E+02
    -20.996  0.1771E+02  0.5075E+02
    -20.878  0.1078E+02  0.5202E+02
    -20.761  0.8838E+01  0.5305E+02
    -20.644  0.8493E+01  0.5405E+02
    -20.527  0.1120E+02  0.5537E+02
    -20.410  0.1633E+02  0.5728E+02
    -20.293  0.5946E+01  0.5798E+02
    -20.176  0.4632E+01  0.5852E+02
    -20.059  0.1114E+02  0.5983E+02
    -19.941  0.1173E+02  0.6120E+02
    -19.824  0.5834E+01  0.6189E+02
    -19.707  0.8223E+00  0.6199E+02
    -19.590  0.8344E-01  0.6200E+02
    -19.473  0.0000E+00  0.6200E+02
    -19.356  0.0000E+00  0.6200E+02
    -19.239  0.0000E+00  0.6200E+02
    -19.122  0.0000E+00  0.6200E+02
    -19.004  0.0000E+00  0.6200E+02
    -18.887  0.0000E+00  0.6200E+02
    -18.770  0.0000E+00  0.6200E+02
    -18.653  0.0000E+00  0.6200E+02
    -18.536  0.0000E+00  0.6200E+02
    -18.419  0.0000E+00  0.6200E+02
    -18.302  0.0000E+00  0.6200E+02
    -18.185  0.0000E+00  0.6200E+02
    -18.067  0.0000E+00  0.6200E+02
    -17.950  0.0000E+00  0.6200E+02
    -17.833  0.0000E+00  0.6200E+02
    -17.716  0.0000E+00  0.6200E+02
    -17.599  0.0000E+00  0.6200E+02
    -17.482  0.0000E+00  0.6200E+02
    -17.365  0.0000E+00  0.6200E+02
    -17.248  0.0000E+00  0.6200E+02
    -17.130  0.0000E+00  0.6200E+02
    -17.013  0.0000E+00  0.6200E+02
    -16.896  0.0000E+00  0.6200E+02
    -16.779  0.0000E+00  0.6200E+02
    -16.662  0.0000E+00  0.6200E+02
    -16.545  0.0000E+00  0.6200E+02
    -16.428  0.0000E+00  0.6200E+02
    -16.311  0.0000E+00  0.6200E+02
    -16.193  0.0000E+00  0.6200E+02
    -16.076  0.0000E+00  0.6200E+02
    -15.959  0.0000E+00  0.6200E+02
    -15.842  0.0000E+00  0.6200E+02
    -15.725  0.0000E+00  0.6200E+02
    -15.608  0.0000E+00  0.6200E+02
    -15.491  0.0000E+00  0.6200E+02
    -15.373  0.0000E+00  0.6200E+02
    -15.256  0.0000E+00  0.6200E+02
    -15.139  0.0000E+00  0.6200E+02
    -15.022  0.0000E+00  0.6200E+02
    -14.905  0.0000E+00  0.6200E+02
    -14.788  0.0000E+00  0.6200E+02
    -14.671  0.0000E+00  0.6200E+02
    -14.554  0.0000E+00  0.6200E+02
    -14.436  0.0000E+00  0.6200E+02
    -14.319  0.0000E+00  0.6200E+02
    -14.202  0.0000E+00  0.6200E+02
    -14.085  0.0000E+00  0.6200E+02
    -13.968  0.0000E+00  0.6200E+02
    -13.851  0.0000E+00  0.6200E+02
    -13.734  0.0000E+00  0.6200E+02
    -13.617  0.0000E+00  0.6200E+02
    -13.499  0.0000E+00  0.6200E+02
    -13.382  0.0000E+00  0.6200E+02
    -13.265  0.0000E+00  0.6200E+02
    -13.148  0.0000E+00  0.6200E+02
    -13.031  0.0000E+00  0.6200E+02
    -12.914  0.0000E+00  0.6200E+02
    -12.797  0.0000E+00  0.6200E+02
    -12.680  0.0000E+00  0.6200E+02
    -12.562  0.0000E+00  0.6200E+02
    -12.445  0.0000E+00  0.6200E+02
    -12.328  0.0000E+00  0.6200E+02
    -12.211  0.4304E-02  0.6200E+02
    -12.094  0.4152E-01  0.6201E+02
    -11.977  0.4198E+00  0.6205E+02
    -11.860  0.3426E+01  0.6246E+02
    -11.743  0.1003E+02  0.6363E+02
    -11.625  0.1017E+02  0.6482E+02
    -11.508  0.8805E+01  0.6585E+02
    -11.391  0.6108E+01  0.6657E+02
    -11.274  0.9087E+01  0.6764E+02
    -11.157  0.3504E+01  0.6805E+02
    -11.040  0.6314E+01  0.6879E+02
    -10.923  0.2068E+02  0.7122E+02
    -10.805  0.1969E+02  0.7352E+02
    -10.688  0.1233E+02  0.7497E+02
    -10.571  0.8314E+01  0.7595E+02
    -10.454  0.9139E+01  0.7702E+02
    -10.337  0.2878E+02  0.8039E+02
    -10.220  0.3380E+02  0.8435E+02
    -10.103  0.2421E+02  0.8719E+02
     -9.986  0.1553E+02  0.8901E+02
     -9.868  0.1359E+02  0.9061E+02
     -9.751  0.1701E+02  0.9260E+02
     -9.634  0.3220E+02  0.9637E+02
     -9.517  0.2649E+02  0.9948E+02
     -9.400  0.1151E+02  0.1008E+03
     -9.283  0.1612E+02  0.1027E+03
     -9.166  0.2587E+02  0.1058E+03
     -9.049  0.3027E+02  0.1093E+03
     -8.931  0.2231E+02  0.1119E+03
     -8.814  0.1467E+02  0.1136E+03
     -8.697  0.9011E+01  0.1147E+03
     -8.580  0.2012E+02  0.1171E+03
     -8.463  0.2805E+02  0.1204E+03
     -8.346  0.2521E+02  0.1233E+03
     -8.229  0.1570E+02  0.1251E+03
     -8.112  0.1267E+02  0.1266E+03
     -7.994  0.1065E+02  0.1279E+03
     -7.877  0.1110E+02  0.1292E+03
     -7.760  0.1796E+02  0.1313E+03
     -7.643  0.1663E+02  0.1332E+03
     -7.526  0.1472E+02  0.1350E+03
     -7.409  0.2292E+02  0.1377E+03
     -7.292  0.2427E+02  0.1405E+03
     -7.175  0.2347E+02  0.1432E+03
     -7.057  0.1855E+02  0.1454E+03
     -6.940  0.1608E+02  0.1473E+03
     -6.823  0.2089E+02  0.1498E+03
     -6.706  0.2124E+02  0.1523E+03
     -6.589  0.2499E+02  0.1552E+03
     -6.472  0.2217E+02  0.1578E+03
     -6.355  0.2001E+02  0.1601E+03
     -6.237  0.1696E+02  0.1621E+03
     -6.120  0.1827E+02  0.1643E+03
     -6.003  0.2275E+02  0.1669E+03
     -5.886  0.2543E+02  0.1699E+03
     -5.769  0.2807E+02  0.1732E+03
     -5.652  0.2350E+02  0.1760E+03
     -5.535  0.2468E+02  0.1789E+03
     -5.418  0.2812E+02  0.1822E+03
     -5.300  0.2695E+02  0.1853E+03
     -5.183  0.2177E+02  0.1879E+03
     -5.066  0.2216E+02  0.1905E+03
     -4.949  0.2500E+02  0.1934E+03
     -4.832  0.1956E+02  0.1957E+03
     -4.715  0.2142E+02  0.1982E+03
     -4.598  0.2396E+02  0.2010E+03
     -4.481  0.3985E+02  0.2057E+03
     -4.363  0.5630E+02  0.2123E+03
     -4.246  0.4119E+02  0.2171E+03
     -4.129  0.2267E+02  0.2198E+03
     -4.012  0.3370E+02  0.2237E+03
     -3.895  0.3520E+02  0.2279E+03
     -3.778  0.2416E+02  0.2307E+03
     -3.661  0.3105E+02  0.2343E+03
     -3.544  0.3424E+02  0.2384E+03
     -3.426  0.2331E+02  0.2411E+03
     -3.309  0.1947E+02  0.2434E+03
     -3.192  0.1856E+02  0.2456E+03
     -3.075  0.1282E+02  0.2471E+03
     -2.958  0.6804E+01  0.2479E+03
     -2.841  0.1041E+01  0.2480E+03
     -2.724  0.1072E+00  0.2480E+03
     -2.607  0.0000E+00  0.2480E+03
     -2.489  0.0000E+00  0.2480E+03
     -2.372  0.0000E+00  0.2480E+03
     -2.255  0.0000E+00  0.2480E+03
     -2.138  0.0000E+00  0.2480E+03
     -2.021  0.0000E+00  0.2480E+03
     -1.904  0.0000E+00  0.2480E+03
     -1.787  0.0000E+00  0.2480E+03
     -1.669  0.0000E+00  0.2480E+03
     -1.552  0.0000E+00  0.2480E+03
     -1.435  0.0000E+00  0.2480E+03
     -1.318  0.0000E+00  0.2480E+03
     -1.201  0.0000E+00  0.2480E+03
     -1.084  0.0000E+00  0.2480E+03
     -0.967  0.0000E+00  0.2480E+03
     -0.850  0.0000E+00  0.2480E+03
     -0.732  0.0000E+00  0.2480E+03
     -0.615  0.0000E+00  0.2480E+03
     -0.498  0.0000E+00  0.2480E+03
     -0.381  0.0000E+00  0.2480E+03
     -0.264  0.0000E+00  0.2480E+03
     -0.147  0.0000E+00  0.2480E+03
     -0.030  0.0000E+00  0.2480E+03
      0.087  0.0000E+00  0.2480E+03
      0.205  0.4784E-05  0.2480E+03
      0.322  0.1663E-03  0.2480E+03
      0.439  0.1753E-02  0.2480E+03
      0.556  0.1801E-01  0.2480E+03
      0.673  0.1553E+00  0.2480E+03
      0.790  0.7051E+00  0.2481E+03
      0.907  0.1509E+01  0.2483E+03
      1.024  0.2334E+01  0.2486E+03
      1.142  0.3140E+01  0.2489E+03
      1.259  0.3361E+01  0.2493E+03
      1.376  0.3071E+01  0.2497E+03
      1.493  0.2987E+01  0.2500E+03
      1.610  0.3923E+01  0.2505E+03
      1.727  0.5131E+01  0.2511E+03
      1.844  0.5062E+01  0.2517E+03
      1.961  0.5161E+01  0.2523E+03
      2.079  0.6021E+01  0.2530E+03
      2.196  0.5048E+01  0.2536E+03
      2.313  0.4333E+01  0.2541E+03
      2.430  0.5478E+01  0.2547E+03
      2.547  0.6813E+01  0.2555E+03
      2.664  0.6885E+01  0.2563E+03
      2.781  0.7314E+01  0.2572E+03
      2.898  0.7556E+01  0.2581E+03
      3.016  0.7599E+01  0.2590E+03
      3.133  0.8575E+01  0.2600E+03
      3.250  0.9732E+01  0.2611E+03
      3.367  0.1025E+02  0.2623E+03
      3.484  0.9379E+01  0.2634E+03
      3.601  0.9528E+01  0.2645E+03
      3.718  0.1135E+02  0.2659E+03
      3.836  0.1253E+02  0.2673E+03
      3.953  0.1282E+02  0.2688E+03
      4.070  0.1292E+02  0.2704E+03
      4.187  0.1332E+02  0.2719E+03
      4.304  0.1358E+02  0.2735E+03
      4.421  0.1427E+02  0.2752E+03
      4.538  0.1485E+02  0.2769E+03
      4.655  0.1547E+02  0.2787E+03
      4.773  0.1654E+02  0.2807E+03
      4.890  0.1728E+02  0.2827E+03
      5.007  0.1744E+02  0.2848E+03
      5.124  0.1827E+02  0.2869E+03
      5.241  0.1871E+02  0.2891E+03
      5.358  0.1885E+02  0.2913E+03
      5.475  0.1976E+02  0.2936E+03
      5.592  0.2107E+02  0.2961E+03
      5.710  0.2278E+02  0.2988E+03
      5.827  0.2312E+02  0.3015E+03
      5.944  0.2276E+02  0.3041E+03
      6.061  0.2405E+02  0.3070E+03
      6.178  0.2487E+02  0.3099E+03
      6.295  0.2558E+02  0.3129E+03
      6.412  0.2564E+02  0.3159E+03
      6.529  0.2525E+02  0.3188E+03
      6.647  0.2585E+02  0.3219E+03
      6.764  0.2524E+02  0.3248E+03
      6.881  0.2326E+02  0.3276E+03
      6.998  0.2219E+02  0.3302E+03
      7.115  0.2258E+02  0.3328E+03
      7.232  0.2147E+02  0.3353E+03
      7.349  0.1959E+02  0.3376E+03
      7.466  0.1772E+02  0.3397E+03
      7.584  0.1484E+02  0.3415E+03
      7.701  0.1154E+02  0.3428E+03
      7.818  0.6963E+01  0.3436E+03
      7.935  0.2470E+01  0.3439E+03
      8.052  0.5158E+00  0.3440E+03
      8.169  0.9222E-01  0.3440E+03
      8.286  0.1450E-01  0.3440E+03
      8.404  0.1405E-02  0.3440E+03
      8.521  0.0000E+00  0.3440E+03
      8.638  0.0000E+00  0.3440E+03
      8.755  0.0000E+00  0.3440E+03
      8.872  0.0000E+00  0.3440E+03
      8.989  0.0000E+00  0.3440E+03
      9.106  0.0000E+00  0.3440E+03
      9.223  0.0000E+00  0.3440E+03
      9.341  0.0000E+00  0.3440E+03
      9.458  0.0000E+00  0.3440E+03
      9.575  0.0000E+00  0.3440E+03
      9.692  0.0000E+00  0.3440E+03
