       N       E                     dE             d eps       ncg     rms          rms(c)
RMM:   1     0.332148110247E+04    0.33215E+04   -0.74370E+04 86688   0.878E+02
RMM:   2     0.105191267083E+04   -0.22696E+04   -0.24362E+04 86688   0.253E+02
RMM:   3     0.867254920868E+02   -0.96519E+03   -0.10261E+04 86688   0.187E+02
RMM:   4    -0.344287407297E+03   -0.43101E+03   -0.36654E+03 86688   0.130E+02
RMM:   5    -0.451462278925E+03   -0.10717E+03   -0.97695E+02 86688   0.685E+01
RMM:   6    -0.479045646142E+03   -0.27583E+02   -0.25184E+02 86688   0.353E+01
RMM:   7    -0.486380365111E+03   -0.73347E+01   -0.70230E+01 86688   0.180E+01
RMM:   8    -0.488582620898E+03   -0.22023E+01   -0.20751E+01 86688   0.960E+00
RMM:   9    -0.489448781002E+03   -0.86616E+00   -0.85037E+00221726   0.509E+00
RMM:  10    -0.489569027142E+03   -0.12025E+00   -0.11324E+00235462   0.148E+00
RMM:  11    -0.489571295382E+03   -0.22682E-02   -0.38512E-02221799   0.315E-01
RMM:  12    -0.489571936154E+03   -0.64077E-03   -0.62844E-03223064   0.818E-02    0.396E+01
RMM:  13    -0.448358959282E+03    0.41213E+02   -0.14601E+02208338   0.242E+01    0.152E+01
RMM:  14    -0.447136221953E+03    0.12227E+01   -0.54065E+00217920   0.415E+00    0.960E+00
RMM:  15    -0.446633344202E+03    0.50288E+00   -0.16463E+00214649   0.356E+00    0.135E+00
RMM:  16    -0.446587952943E+03    0.45391E-01   -0.28651E-01221757   0.956E-01    0.524E-01
RMM:  17    -0.446595311505E+03   -0.73586E-02   -0.45428E-02209135   0.409E-01    0.326E-01
RMM:  18    -0.446591851009E+03    0.34605E-02   -0.98365E-03217347   0.218E-01    0.911E-02
RMM:  19    -0.446590782014E+03    0.10690E-02   -0.24304E-03218848   0.823E-02    0.387E-02
RMM:  20    -0.446590577094E+03    0.20492E-03   -0.61566E-04219783   0.398E-02    0.199E-02
RMM:  21    -0.446590557452E+03    0.19642E-04   -0.91914E-05221420   0.157E-02    0.938E-03
RMM:  22    -0.446590553217E+03    0.42345E-05   -0.21494E-05206592   0.846E-03    0.342E-03
RMM:  23    -0.446590552934E+03    0.28275E-06   -0.31603E-06171568   0.350E-03
   1 F= -.44966197E+03 E0= -.44966197E+03  d E =-.132751E-09
