ice                                     
           1
     9.814900    0.000000    0.000000
     0.000000    9.814900    0.000000
     0.000000    0.000000    9.814900
   O    H 
  31  62
Direct configuration=     1
   0.58007825  0.38460911  0.13049547
   0.12678682  0.81065217  0.60808465
   0.08636349  0.56304700  0.75225626
   0.06976648  0.38309815  0.40746314
   0.06954151  0.76404752  0.16706029
   0.74868007  0.01863340  0.69936423
   0.57451324  0.19109313  0.79056536
   0.01370793  0.21352026  0.18370029
   0.27985817  0.85774893  0.97801241
   0.83990973  0.39263569  0.02211454
   0.27231454  0.21278362  0.70574738
   0.96295194  0.33092747  0.67114591
   0.72686426  0.81642197  0.87132829
   0.67680262  0.04388817  0.43445476
   0.34579364  0.60987274  0.85027560
   0.23183629  0.13718836  0.95067092
   0.46618203  0.14060969  0.09200511
   0.68321124  0.65365210  0.41884889
   0.84399230  0.94896535  0.23728107
   0.34175488  0.36316621  0.44007886
   0.41295989  0.11879184  0.37907671
   0.00387014  0.04610266  0.63075019
   0.14530764  0.03631010  0.37328450
   0.37380921  0.83351231  0.49986245
   0.35358893  0.54351038  0.11275815
   0.46558702  0.73509664  0.26201999
   0.55480851  0.65211362  0.71194510
   0.63735036  0.35655891  0.39870809
   0.93459210  0.65359708  0.95178575
   0.60185534  0.91056037  0.09829820
   0.97184383  0.66475766  0.39946102
   0.53392189  0.47011483  0.12172819
   0.67847253  0.40687220  0.08189589
   0.06793650  0.79717572  0.52857390
   0.11333585  0.72500586  0.66863748
   0.04911532  0.46629105  0.74899286
   0.16984585  0.57384283  0.80112584
   0.17233390  0.40691194  0.40749575
   0.02922760  0.35278709  0.50127867
   0.03964870  0.84964289  0.18904930
   0.04867946  0.72110261  0.24917014
   0.68359229  0.01474585  0.61904553
   0.71982394  0.93860233  0.74848037
   0.51381369  0.16745662  0.86700017
   0.62553668  0.11494259  0.78477213
   0.93805704  0.25654872  0.15035303
   0.04599456  0.25845195  0.27862739
   0.24892154  0.96659579  0.96885317
   0.23119848  0.81359871  0.05802484
   0.80436377  0.39975649  0.92926622
   0.86107347  0.49410896  0.02345821
   0.18111137  0.19562808  0.69138453
   0.29520932  0.27447045  0.63237629
   0.98620404  0.23785877  0.65628585
   0.86185086  0.31013969  0.68837278
   0.68515624  0.84520780  0.95886866
   0.79334481  0.74519353  0.91598804
   0.69119400  0.14180583  0.41404192
   0.56448155  0.05005176  0.41576379
   0.35774078  0.57015354  0.95608412
   0.30391751  0.70257160  0.88833304
   0.23555003  0.19278036  0.85661494
   0.16600984  0.16403631  0.01131341
   0.37455603  0.13440178  0.05815057
   0.47637164  0.23650470  0.11586058
   0.63744511  0.62958665  0.52436092
   0.60542848  0.67333850  0.36715300
   0.90384558  0.03254949  0.18473647
   0.75727720  0.98221531  0.30407646
   0.40941222  0.42243018  0.46817899
   0.39042374  0.26745968  0.42104759
   0.30998482  0.09806376  0.36380401
   0.42935435  0.10503316  0.27520403
   0.90348083  0.02188733  0.64285525
   0.06159788  0.96544570  0.63020306
   0.06778592  0.03557499  0.29138860
   0.07479383  0.04896025  0.46723044
   0.29247878  0.79828118  0.55735565
   0.44472791  0.81523908  0.57338944
   0.39424039  0.61848720  0.15811776
   0.29154856  0.47299922  0.16756972
   0.43123822  0.75506220  0.34911512
   0.48721943  0.80684673  0.19920937
   0.59820375  0.69143241  0.79808862
   0.46264251  0.64022659  0.75558488
   0.61774445  0.37702473  0.29917167
   0.66952185  0.44447727  0.39682422
   0.00709829  0.61884584  0.85887783
   0.99045115  0.70820487  0.02754435
   0.55744531  0.00997320  0.08945674
   0.68976658  0.91840355  0.12517601
   0.87000071  0.65332199  0.40840151
   0.00517479  0.57181530  0.40702198
