  93  93   0   0
  0.1016658E+02  0.9814900E-09  0.9814900E-09  0.9814900E-09  0.5000000E-15
  1.000000000000000E-004
  CAR 
 ice                                     
      9.72765901    -25.31862448  301     -1.01975384      1.00000000
    -25.319  0.0000E+00  0.0000E+00
    -25.202  0.0000E+00  0.0000E+00
    -25.085  0.0000E+00  0.0000E+00
    -24.968  0.0000E+00  0.0000E+00
    -24.851  0.0000E+00  0.0000E+00
    -24.735  0.0000E+00  0.0000E+00
    -24.618  0.0000E+00  0.0000E+00
    -24.501  0.0000E+00  0.0000E+00
    -24.384  0.0000E+00  0.0000E+00
    -24.267  0.0000E+00  0.0000E+00
    -24.150  0.3355E-02  0.3919E-03
    -24.034  0.3128E-01  0.4047E-02
    -23.917  0.3193E+00  0.4135E-01
    -23.800  0.2721E+01  0.3593E+00
    -23.683  0.9012E+01  0.1412E+01
    -23.566  0.6579E+01  0.2181E+01
    -23.449  0.9240E+01  0.3260E+01
    -23.333  0.9469E+01  0.4366E+01
    -23.216  0.1014E+02  0.5552E+01
    -23.099  0.5862E+01  0.6237E+01
    -22.982  0.1601E+02  0.8108E+01
    -22.865  0.3598E+02  0.1232E+02
    -22.749  0.3096E+02  0.1593E+02
    -22.632  0.1963E+02  0.1823E+02
    -22.515  0.2255E+02  0.2087E+02
    -22.398  0.2760E+02  0.2410E+02
    -22.281  0.2944E+02  0.2754E+02
    -22.164  0.2106E+02  0.3000E+02
    -22.048  0.2048E+02  0.3240E+02
    -21.931  0.2058E+02  0.3481E+02
    -21.814  0.1506E+02  0.3658E+02
    -21.697  0.1289E+02  0.3808E+02
    -21.580  0.1801E+02  0.4019E+02
    -21.464  0.2509E+02  0.4312E+02
    -21.347  0.1801E+02  0.4523E+02
    -21.230  0.7108E+01  0.4606E+02
    -21.113  0.7672E+01  0.4696E+02
    -20.996  0.9766E+01  0.4810E+02
    -20.879  0.1138E+02  0.4943E+02
    -20.763  0.1457E+02  0.5114E+02
    -20.646  0.1982E+02  0.5345E+02
    -20.529  0.2458E+02  0.5632E+02
    -20.412  0.1262E+02  0.5780E+02
    -20.295  0.4696E+01  0.5835E+02
    -20.179  0.9033E+01  0.5941E+02
    -20.062  0.4393E+01  0.5992E+02
    -19.945  0.6005E+00  0.5999E+02
    -19.828  0.6038E-01  0.6000E+02
    -19.711  0.0000E+00  0.6000E+02
    -19.594  0.0000E+00  0.6000E+02
    -19.478  0.0000E+00  0.6000E+02
    -19.361  0.1156E-02  0.6000E+02
    -19.244  0.1080E-01  0.6000E+02
    -19.127  0.1109E+00  0.6001E+02
    -19.010  0.1068E+01  0.6014E+02
    -18.893  0.6275E+01  0.6087E+02
    -18.777  0.7752E+01  0.6178E+02
    -18.660  0.1698E+01  0.6198E+02
    -18.543  0.1844E+00  0.6200E+02
    -18.426  0.0000E+00  0.6200E+02
    -18.309  0.0000E+00  0.6200E+02
    -18.193  0.0000E+00  0.6200E+02
    -18.076  0.0000E+00  0.6200E+02
    -17.959  0.0000E+00  0.6200E+02
    -17.842  0.0000E+00  0.6200E+02
    -17.725  0.0000E+00  0.6200E+02
    -17.608  0.0000E+00  0.6200E+02
    -17.492  0.0000E+00  0.6200E+02
    -17.375  0.0000E+00  0.6200E+02
    -17.258  0.0000E+00  0.6200E+02
    -17.141  0.0000E+00  0.6200E+02
    -17.024  0.0000E+00  0.6200E+02
    -16.908  0.0000E+00  0.6200E+02
    -16.791  0.0000E+00  0.6200E+02
    -16.674  0.0000E+00  0.6200E+02
    -16.557  0.0000E+00  0.6200E+02
    -16.440  0.0000E+00  0.6200E+02
    -16.323  0.0000E+00  0.6200E+02
    -16.207  0.0000E+00  0.6200E+02
    -16.090  0.0000E+00  0.6200E+02
    -15.973  0.0000E+00  0.6200E+02
    -15.856  0.0000E+00  0.6200E+02
    -15.739  0.0000E+00  0.6200E+02
    -15.622  0.0000E+00  0.6200E+02
    -15.506  0.0000E+00  0.6200E+02
    -15.389  0.0000E+00  0.6200E+02
    -15.272  0.0000E+00  0.6200E+02
    -15.155  0.0000E+00  0.6200E+02
    -15.038  0.0000E+00  0.6200E+02
    -14.922  0.0000E+00  0.6200E+02
    -14.805  0.0000E+00  0.6200E+02
    -14.688  0.0000E+00  0.6200E+02
    -14.571  0.0000E+00  0.6200E+02
    -14.454  0.0000E+00  0.6200E+02
    -14.337  0.0000E+00  0.6200E+02
    -14.221  0.0000E+00  0.6200E+02
    -14.104  0.0000E+00  0.6200E+02
    -13.987  0.0000E+00  0.6200E+02
    -13.870  0.0000E+00  0.6200E+02
    -13.753  0.0000E+00  0.6200E+02
    -13.637  0.0000E+00  0.6200E+02
    -13.520  0.0000E+00  0.6200E+02
    -13.403  0.0000E+00  0.6200E+02
    -13.286  0.0000E+00  0.6200E+02
    -13.169  0.0000E+00  0.6200E+02
    -13.052  0.0000E+00  0.6200E+02
    -12.936  0.0000E+00  0.6200E+02
    -12.819  0.0000E+00  0.6200E+02
    -12.702  0.0000E+00  0.6200E+02
    -12.585  0.0000E+00  0.6200E+02
    -12.468  0.0000E+00  0.6200E+02
    -12.351  0.0000E+00  0.6200E+02
    -12.235  0.0000E+00  0.6200E+02
    -12.118  0.5457E-02  0.6200E+02
    -12.001  0.5244E-01  0.6201E+02
    -11.884  0.5236E+00  0.6207E+02
    -11.767  0.4060E+01  0.6254E+02
    -11.651  0.1046E+02  0.6376E+02
    -11.534  0.1094E+02  0.6504E+02
    -11.417  0.1068E+02  0.6629E+02
    -11.300  0.1197E+02  0.6769E+02
    -11.183  0.1205E+02  0.6910E+02
    -11.066  0.9935E+01  0.7026E+02
    -10.950  0.1018E+02  0.7146E+02
    -10.833  0.5492E+01  0.7210E+02
    -10.716  0.9925E+01  0.7326E+02
    -10.599  0.2697E+02  0.7641E+02
    -10.482  0.3404E+02  0.8039E+02
    -10.366  0.2207E+02  0.8297E+02
    -10.249  0.2276E+02  0.8563E+02
    -10.132  0.2616E+02  0.8870E+02
    -10.015  0.1043E+02  0.8992E+02
     -9.898  0.6575E+01  0.9069E+02
     -9.781  0.1729E+02  0.9271E+02
     -9.665  0.2190E+02  0.9527E+02
     -9.548  0.2952E+02  0.9872E+02
     -9.431  0.2815E+02  0.1020E+03
     -9.314  0.2002E+02  0.1044E+03
     -9.197  0.2230E+02  0.1070E+03
     -9.081  0.2355E+02  0.1097E+03
     -8.964  0.1606E+02  0.1116E+03
     -8.847  0.9784E+01  0.1127E+03
     -8.730  0.1316E+02  0.1143E+03
     -8.613  0.1667E+02  0.1162E+03
     -8.496  0.1893E+02  0.1185E+03
     -8.380  0.2021E+02  0.1208E+03
     -8.263  0.1957E+02  0.1231E+03
     -8.146  0.2248E+02  0.1257E+03
     -8.029  0.1513E+02  0.1275E+03
     -7.912  0.3893E+01  0.1280E+03
     -7.795  0.2160E+01  0.1282E+03
     -7.679  0.1044E+02  0.1295E+03
     -7.562  0.2472E+02  0.1323E+03
     -7.445  0.2896E+02  0.1357E+03
     -7.328  0.2442E+02  0.1386E+03
     -7.211  0.2639E+02  0.1417E+03
     -7.095  0.2325E+02  0.1444E+03
     -6.978  0.2136E+02  0.1469E+03
     -6.861  0.2071E+02  0.1493E+03
     -6.744  0.2399E+02  0.1521E+03
     -6.627  0.2526E+02  0.1551E+03
     -6.510  0.2192E+02  0.1576E+03
     -6.394  0.1736E+02  0.1597E+03
     -6.277  0.1475E+02  0.1614E+03
     -6.160  0.1228E+02  0.1628E+03
     -6.043  0.1641E+02  0.1647E+03
     -5.926  0.1983E+02  0.1671E+03
     -5.810  0.2486E+02  0.1700E+03
     -5.693  0.2862E+02  0.1733E+03
     -5.576  0.3046E+02  0.1769E+03
     -5.459  0.3108E+02  0.1805E+03
     -5.342  0.2476E+02  0.1834E+03
     -5.225  0.2068E+02  0.1858E+03
     -5.109  0.2849E+02  0.1892E+03
     -4.992  0.2487E+02  0.1921E+03
     -4.875  0.2312E+02  0.1948E+03
     -4.758  0.2784E+02  0.1980E+03
     -4.641  0.2702E+02  0.2012E+03
     -4.524  0.2752E+02  0.2044E+03
     -4.408  0.2979E+02  0.2079E+03
     -4.291  0.3145E+02  0.2116E+03
     -4.174  0.3879E+02  0.2161E+03
     -4.057  0.4332E+02  0.2212E+03
     -3.940  0.4288E+02  0.2262E+03
     -3.824  0.2908E+02  0.2296E+03
     -3.707  0.2136E+02  0.2321E+03
     -3.590  0.2755E+02  0.2353E+03
     -3.473  0.2533E+02  0.2383E+03
     -3.356  0.2556E+02  0.2413E+03
     -3.239  0.1882E+02  0.2435E+03
     -3.123  0.7064E+01  0.2443E+03
     -3.006  0.9302E+01  0.2454E+03
     -2.889  0.4390E+01  0.2459E+03
     -2.772  0.6012E+00  0.2460E+03
     -2.655  0.6966E-01  0.2460E+03
     -2.539  0.9573E-01  0.2460E+03
     -2.422  0.9308E+00  0.2461E+03
     -2.305  0.5812E+01  0.2468E+03
     -2.188  0.8103E+01  0.2477E+03
     -2.071  0.1931E+01  0.2480E+03
     -1.954  0.2135E+00  0.2480E+03
     -1.838  0.0000E+00  0.2480E+03
     -1.721  0.0000E+00  0.2480E+03
     -1.604  0.0000E+00  0.2480E+03
     -1.487  0.0000E+00  0.2480E+03
     -1.370  0.0000E+00  0.2480E+03
     -1.254  0.0000E+00  0.2480E+03
     -1.137  0.0000E+00  0.2480E+03
     -1.020  0.0000E+00  0.2480E+03
     -0.903  0.0000E+00  0.2480E+03
     -0.786  0.0000E+00  0.2480E+03
     -0.669  0.0000E+00  0.2480E+03
     -0.553  0.0000E+00  0.2480E+03
     -0.436  0.0000E+00  0.2480E+03
     -0.319  0.0000E+00  0.2480E+03
     -0.202  0.0000E+00  0.2480E+03
     -0.085  0.0000E+00  0.2480E+03
      0.032  0.0000E+00  0.2480E+03
      0.148  0.4225E-04  0.2480E+03
      0.265  0.6367E-03  0.2480E+03
      0.382  0.6630E-02  0.2480E+03
      0.499  0.6454E-01  0.2480E+03
      0.616  0.4373E+00  0.2481E+03
      0.732  0.1377E+01  0.2482E+03
      0.849  0.2585E+01  0.2485E+03
      0.966  0.3653E+01  0.2489E+03
      1.083  0.3752E+01  0.2494E+03
      1.200  0.3161E+01  0.2498E+03
      1.317  0.2644E+01  0.2501E+03
      1.433  0.2471E+01  0.2504E+03
      1.550  0.2815E+01  0.2507E+03
      1.667  0.3597E+01  0.2511E+03
      1.784  0.4089E+01  0.2516E+03
      1.901  0.4265E+01  0.2521E+03
      2.017  0.5634E+01  0.2527E+03
      2.134  0.6751E+01  0.2535E+03
      2.251  0.6953E+01  0.2543E+03
      2.368  0.6910E+01  0.2552E+03
      2.485  0.6394E+01  0.2559E+03
      2.602  0.5712E+01  0.2566E+03
      2.718  0.5830E+01  0.2573E+03
      2.835  0.7026E+01  0.2581E+03
      2.952  0.7600E+01  0.2590E+03
      3.069  0.8341E+01  0.2599E+03
      3.186  0.7458E+01  0.2608E+03
      3.303  0.8823E+01  0.2618E+03
      3.419  0.1012E+02  0.2630E+03
      3.536  0.1006E+02  0.2642E+03
      3.653  0.1089E+02  0.2655E+03
      3.770  0.1267E+02  0.2670E+03
      3.887  0.1406E+02  0.2686E+03
      4.003  0.1349E+02  0.2702E+03
      4.120  0.1139E+02  0.2715E+03
      4.237  0.1216E+02  0.2729E+03
      4.354  0.1429E+02  0.2746E+03
      4.471  0.1468E+02  0.2763E+03
      4.588  0.1553E+02  0.2781E+03
      4.704  0.1548E+02  0.2799E+03
      4.821  0.1595E+02  0.2818E+03
      4.938  0.1631E+02  0.2837E+03
      5.055  0.1611E+02  0.2856E+03
      5.172  0.1778E+02  0.2877E+03
      5.288  0.1956E+02  0.2900E+03
      5.405  0.2041E+02  0.2924E+03
      5.522  0.2082E+02  0.2948E+03
      5.639  0.2171E+02  0.2973E+03
      5.756  0.2161E+02  0.2999E+03
      5.873  0.2122E+02  0.3023E+03
      5.989  0.2238E+02  0.3050E+03
      6.106  0.2437E+02  0.3078E+03
      6.223  0.2556E+02  0.3108E+03
      6.340  0.2661E+02  0.3139E+03
      6.457  0.2699E+02  0.3171E+03
      6.573  0.2657E+02  0.3202E+03
      6.690  0.2496E+02  0.3231E+03
      6.807  0.2375E+02  0.3259E+03
      6.924  0.2386E+02  0.3287E+03
      7.041  0.2390E+02  0.3315E+03
      7.158  0.2213E+02  0.3341E+03
      7.274  0.1954E+02  0.3363E+03
      7.391  0.1827E+02  0.3385E+03
      7.508  0.1651E+02  0.3404E+03
      7.625  0.1361E+02  0.3420E+03
      7.742  0.9923E+01  0.3432E+03
      7.859  0.5208E+01  0.3438E+03
      7.975  0.1515E+01  0.3440E+03
      8.092  0.2775E+00  0.3440E+03
      8.209  0.4719E-01  0.3440E+03
      8.326  0.7436E-02  0.3440E+03
      8.443  0.6602E-03  0.3440E+03
      8.559  0.0000E+00  0.3440E+03
      8.676  0.0000E+00  0.3440E+03
      8.793  0.0000E+00  0.3440E+03
      8.910  0.0000E+00  0.3440E+03
      9.027  0.0000E+00  0.3440E+03
      9.144  0.0000E+00  0.3440E+03
      9.260  0.0000E+00  0.3440E+03
      9.377  0.0000E+00  0.3440E+03
      9.494  0.0000E+00  0.3440E+03
      9.611  0.0000E+00  0.3440E+03
      9.728  0.0000E+00  0.3440E+03
