       N       E                     dE             d eps       ncg     rms          rms(c)
RMM:   1     0.332239023567E+04    0.33224E+04   -0.74371E+04 86688   0.878E+02
RMM:   2     0.105185076639E+04   -0.22705E+04   -0.24379E+04 86688   0.253E+02
RMM:   3     0.887880223795E+02   -0.96306E+03   -0.10258E+04 86688   0.187E+02
RMM:   4    -0.343214523341E+03   -0.43200E+03   -0.36774E+03 86688   0.130E+02
RMM:   5    -0.451058878037E+03   -0.10784E+03   -0.98134E+02 86688   0.686E+01
RMM:   6    -0.478801586429E+03   -0.27743E+02   -0.25315E+02 86688   0.354E+01
RMM:   7    -0.486174813993E+03   -0.73732E+01   -0.70597E+01 86688   0.180E+01
RMM:   8    -0.488389526449E+03   -0.22147E+01   -0.20866E+01 86688   0.963E+00
RMM:   9    -0.489260833998E+03   -0.87131E+00   -0.85544E+00221690   0.511E+00
RMM:  10    -0.489381905228E+03   -0.12107E+00   -0.11404E+00235621   0.148E+00
RMM:  11    -0.489384106574E+03   -0.22013E-02   -0.38313E-02221804   0.314E-01
RMM:  12    -0.489384743115E+03   -0.63654E-03   -0.62437E-03222974   0.814E-02    0.397E+01
RMM:  13    -0.447958768404E+03    0.41426E+02   -0.14640E+02210766   0.243E+01    0.152E+01
RMM:  14    -0.446688580948E+03    0.12702E+01   -0.54659E+00218012   0.417E+00    0.961E+00
RMM:  15    -0.446131703589E+03    0.55688E+00   -0.16529E+00215075   0.356E+00    0.135E+00
RMM:  16    -0.446080085597E+03    0.51618E-01   -0.29648E-01221752   0.965E-01    0.546E-01
RMM:  17    -0.446083466406E+03   -0.33808E-02   -0.46474E-02209315   0.405E-01    0.319E-01
RMM:  18    -0.446078439219E+03    0.50272E-02   -0.13129E-02215853   0.242E-01    0.114E-01
RMM:  19    -0.446076849725E+03    0.15895E-02   -0.35307E-03218210   0.970E-02    0.441E-02
RMM:  20    -0.446076602922E+03    0.24680E-03   -0.82923E-04219231   0.471E-02    0.238E-02
RMM:  21    -0.446076571422E+03    0.31500E-04   -0.10569E-04220950   0.180E-02    0.975E-03
RMM:  22    -0.446076563300E+03    0.81214E-05   -0.24821E-05211817   0.917E-03    0.394E-03
RMM:  23    -0.446076562549E+03    0.75168E-06   -0.38634E-06176410   0.344E-03
   1 F= -.44915634E+03 E0= -.44915634E+03  d E =-.271209E-10
