    #         X           Y           Z       CHARGE      MIN DIST   ATOMIC VOL
 --------------------------------------------------------------------------------
    1    1.993229    0.804854   14.569567    0.576713     0.011591     7.765370
    2    1.991119    0.805070   22.071201    0.383161     0.030938     2.214999
    3    3.374834    4.235677   14.569567    1.100433     0.011591    29.055995
    4    3.376076    4.237396   22.071201    0.385406     0.030938     2.863963
    5    0.303111    2.128473   10.786794    0.414837     0.038079     5.589433
    6    0.298819    2.127786   18.319573    0.338605     0.019614     2.064965
    7    0.296585    2.127302   25.846988    0.420163     0.034325    14.634087
    8   -1.982668    5.037552   10.786794    0.398982     0.104586     2.404983
    9   -1.981118    5.041613   18.319573    0.329969     0.081959     1.719621
   10   -1.980434    5.043789   25.846988    0.409061     0.107428     8.828925
   11    1.691757    1.326738   10.786794    0.391365     0.038079     2.040107
   12    1.693307    1.322678   18.319573    0.330247     0.019614     1.692100
   13    1.694005    1.320501   25.846988    0.423651     0.034325    14.707772
   14    5.353983    0.801735   10.786794    0.397353     0.104586     2.414749
   15    5.356724    0.805108   18.319573    0.333093     0.081959     1.726723
   16    5.358267    0.806788   25.846988    0.405904     0.107428     6.345817
   17   -0.299591    2.128613   14.569567    1.022235     0.011591    24.932280
   18   -0.298349    2.126895   22.071201    0.385288     0.030938     2.840881
   19    1.980787    5.040531   14.569567    0.597822     0.011591     8.527969
   20    1.981654    5.042466   22.071201    0.373692     0.030938     2.177713
   21    2.583723    0.000000    9.171398    0.741965     0.155280   205.135559
   22    2.522169    0.000000   16.712048    0.377151     0.074315     2.419187
   23    2.518539    0.000000   24.215404    0.415092     0.095528     3.916864
   24    3.477740    0.000000   10.519489    0.480697     0.011992     9.951960
   25    3.442495    0.000000   18.057925    0.334383     0.088337     1.740039
   26    3.442819    0.000000   25.571023    0.371161     0.030472     3.916864
   27    2.382563    4.126721    9.171398    0.661404     0.179560   327.256144
   28    2.413340    4.180028   16.712048    0.379766     0.092386     2.428065
   29    2.415155    4.183172   24.215404    0.382563     0.095528     3.651420
   30    1.935555    3.352479   10.519489    0.437210     0.109920     4.524103
   31    1.953177    3.383002   18.057925    0.344892     0.089858     1.854562
   32    1.953016    3.382722   25.571023    0.457350     0.113253     5.367489
   33   13.405838    2.237570    9.171398    0.741676     0.155280   205.695745
   34   13.436615    2.184263   16.712048    0.377568     0.074315     2.418300
   35   13.438430    2.181119   24.215404    0.416645     0.095528     3.917752
   36   12.958830    3.011811   10.519489    0.413582     0.011992     4.509898
   37   12.976452    2.981288   18.057925    0.333334     0.088337     1.738264
   38   12.976291    2.981568   25.571023    0.372386     0.030472     3.846730
   39    4.831898    0.000000   12.962633    0.604610     0.129421     4.815293
   40    4.825226    0.000000   20.461315    0.337313     0.028705     2.316206
   41    3.906178    0.000000   14.305410    0.717863     0.083267    10.421593
   42    3.905737    0.000000   21.807979    0.430418     0.083531     2.818686
   43    1.258476    2.179744   12.962633    0.582646     0.129421     4.718525
   44    1.261812    2.185523   20.461315    0.329753     0.028705     2.334849
   45    1.721336    2.981441   14.305410    0.715061     0.154776     9.782395
   46    1.721556    2.981823   21.807979    0.444344     0.096844     2.717480
   47   12.281751    4.184546   12.962633    0.602241     0.129421     4.817956
   48   12.285087    4.178768   20.461315    0.339028     0.028705     2.328634
   49   -1.953089    3.382850   14.305410    0.717883     0.083267    10.423369
   50   -1.952869    3.382468   21.807979    0.427867     0.083531     2.541700
   51    9.342079    0.804854   14.569567    0.576713     0.011591     7.765370
   52    9.339969    0.805070   22.071201    0.378044     0.030938     2.207897
   53   10.723684    4.235677   14.569567    1.001733     0.011591    24.161691
   54   10.724926    4.237396   22.071201    0.385391     0.030938     2.860412
   55    5.655212    1.323760   14.569567    0.592677     0.109095     7.871015
   56    5.656079    1.321825   22.071201    0.393607     0.069639     2.337512
   57    7.651961    2.128473   10.786794    0.414842     0.038079     5.591208
   58    7.647669    2.127786   18.319573    0.338585     0.019614     2.064077
   59    7.645435    2.127302   25.846988    0.420155     0.034325    14.642965
   60    5.366182    5.037552   10.786794    0.398959     0.104586     2.402320
   61    5.367732    5.041613   18.319573    0.329969     0.081959     1.719621
   62    5.368416    5.043789   25.846988    0.409065     0.107428     8.825374
   63    3.977536    4.235817   10.786794    0.418356     0.038079     5.424307
   64    3.973244    4.236505   18.319573    0.336392     0.019614     2.048097
   65    3.971025    4.236988   25.846988    0.410158     0.034321     7.840831
   66    9.040607    1.326738   10.786794    0.391343     0.038079     2.039220
   67    9.042157    1.322678   18.319573    0.330247     0.019614     1.692100
   68    9.042855    1.320501   25.846988    0.425610     0.034325    14.707772
   69   12.702833    0.801735   10.786794    0.397362     0.104586     2.415636
   70   12.705574    0.805108   18.319573    0.333133     0.081959     1.728498
   71   12.707117    0.806788   25.846988    0.405890     0.107428     6.349368
   72    7.049259    2.128613   14.569567    1.022217     0.011591    24.931392
   73    7.050501    2.126895   22.071201    0.385288     0.030938     2.840881
   74    9.329637    5.040531   14.569567    0.597822     0.011591     8.527969
   75    9.330504    5.042466   22.071201    0.380415     0.030938     2.186590
   76    9.932573    0.000000    9.171398    0.742011     0.155280   205.114252
   77    9.871019    0.000000   16.712048    0.377151     0.074315     2.419187
   78    9.867389    0.000000   24.215404    0.415092     0.095528     3.916864
   79   10.826590    0.000000   10.519489    0.480758     0.011992     9.954624
   80   10.791345    0.000000   18.057925    0.334383     0.088337     1.740039
   81   10.791669    0.000000   25.571023    0.371158     0.030472     3.915977
   82    9.731413    4.126721    9.171398    0.661389     0.179560   327.245491
   83    9.762190    4.180028   16.712048    0.379766     0.092386     2.428065
   84    9.764005    4.183172   24.215404    0.382563     0.095528     3.651420
   85    9.284405    3.352479   10.519489    0.437194     0.109920     4.523215
   86    9.302027    3.383002   18.057925    0.344872     0.089858     1.853675
   87    9.301866    3.382722   25.571023    0.457351     0.113253     5.370152
   88    6.056988    2.237570    9.171398    0.741648     0.155280   205.720603
   89    6.087765    2.184263   16.712048    0.377568     0.074315     2.418300
   90    6.089580    2.181119   24.215404    0.414832     0.095528     3.916864
   91    5.609980    3.011811   10.519489    0.413563     0.011992     4.509010
   92    5.627602    2.981288   18.057925    0.333334     0.088337     1.738264
   93    5.627441    2.981568   25.571023    0.371681     0.030472     3.851169
   94   12.180748    0.000000   12.962633    0.604610     0.129421     4.815293
   95   12.174076    0.000000   20.461315    0.337149     0.028705     2.314430
   96   11.255028    0.000000   14.305410    0.717863     0.083267    10.421593
   97   11.254587    0.000000   21.807979    0.430418     0.083531     2.818686
   98    8.607326    2.179744   12.962633    0.582646     0.129421     4.718525
   99    8.610662    2.185523   20.461315    0.329753     0.028705     2.334849
  100    9.070186    2.981441   14.305410    0.715061     0.154776     9.782395
  101    9.070406    2.981823   21.807979    0.444344     0.096844     2.717480
  102    4.932901    4.184546   12.962633    0.602407     0.129421     4.815293
  103    4.936237    4.178768   20.461315    0.338684     0.028705     2.327747
  104    5.395761    3.382850   14.305410    0.717883     0.083267    10.423369
  105    5.395981    3.382468   21.807979    0.428228     0.083531     2.548803
  106   -1.681196    7.169144   14.569567    0.576713     0.011591     7.765370
  107   -1.683306    7.169361   22.071201    0.382772     0.030938     2.208785
  108   -0.299591   10.599968   14.569567    1.100432     0.011591    29.055995
  109   -0.298349   10.601686   22.071201    0.381891     0.030938     2.502638
  110    1.679558    5.562555   10.786794    0.397925     0.038079     2.509741
  111    1.682299    5.559182   18.319573    0.330367     0.019614     1.677895
  112    1.683827    5.557502   25.846988    0.402946     0.034321    18.084869
  113   -3.371314    8.492764   10.786794    0.414845     0.038079     5.588545
  114   -3.375606    8.492076   18.319573    0.338671     0.019614     2.067629
  115   -3.377840    8.491593   25.846988    0.420156     0.034325    14.625209
  116   -5.657093   11.401843   10.786794    0.398961     0.104586     2.403208
  117   -5.655543   11.405903   18.319573    0.330433     0.081959     1.721396
  118   -5.654859   11.408080   25.846988    0.409062     0.107428     8.841354
  119   -1.982668    7.691029   10.786794    0.391343     0.038079     2.039220
  120   -1.981118    7.686968   18.319573    0.330247     0.019614     1.692100
  121   -1.980420    7.684792   25.846988    0.424453     0.034325    14.699782
  122    1.679558    7.166026   10.786794    0.397372     0.104586     2.416524
  123    1.682299    7.169399   18.319573    0.333113     0.081959     1.727611
  124    1.683842    7.171079   25.846988    0.405893     0.107428     6.345817
  125   -3.974016    8.492904   14.569567    1.120877     0.011591    29.826584
  126   -3.972774    8.491185   22.071201    0.381785     0.030938     2.480444
  127   -1.693638   11.404821   14.569567    0.597822     0.011591     8.527969
  128   -1.692771   11.406756   22.071201    0.375036     0.030938     2.167947
  129   -1.681196    5.559437   14.569567    0.592779     0.109095     7.876342
  130   -1.683306    5.559220   22.071201    0.393458     0.069639     2.340176
  131   -1.090702    6.364291    9.171398    0.741993     0.155280   205.130232
  132   -1.152256    6.364291   16.712048    0.377151     0.074315     2.419187
  133   -1.155886    6.364291   24.215404    0.415162     0.095528     3.917752
  134   -0.196685    6.364291   10.519489    0.480735     0.011992     9.954624
  135   -0.231930    6.364291   18.057925    0.334383     0.088337     1.740039
  136   -0.231606    6.364291   25.571023    0.371172     0.030472     3.917752
  137   -1.291862   10.491011    9.171398    0.661410     0.179560   327.139845
  138   -1.261085   10.544318   16.712048    0.379766     0.092386     2.428065
  139   -1.259270   10.547462   24.215404    0.382563     0.095528     3.651420
  140   -1.738870    9.716770   10.519489    0.437207     0.109920     4.524103
  141   -1.721248    9.747293   18.057925    0.344892     0.089858     1.854562
  142   -1.721409    9.747013   25.571023    0.457349     0.113253     5.347958
  143    9.731413    8.601860    9.171398    0.741666     0.155280   205.565242
  144    9.762190    8.548553   16.712048    0.377568     0.074315     2.418300
  145    9.764005    8.545409   24.215404    0.415440     0.095528     3.915977
  146    9.284405    9.376102   10.519489    0.413561     0.011992     4.509010
  147    9.302027    9.345579   18.057925    0.333334     0.088337     1.738264
  148    9.301866    9.345859   25.571023    0.372349     0.030472     3.860047
  149    1.157473    6.364291   12.962633    0.604705     0.129421     4.816181
  150    1.150801    6.364291   20.461315    0.337313     0.028705     2.316206
  151    0.231753    6.364291   14.305410    0.717863     0.083267    10.421593
  152    0.231312    6.364291   21.807979    0.430418     0.083531     2.818686
  153   -2.415949    8.544035   12.962633    0.583868     0.129421     4.719413
  154   -2.412613    8.549813   20.461315    0.329753     0.028705     2.334849
  155   -1.953089    9.345731   14.305410    0.715061     0.154776     9.782395
  156   -1.952869    9.346113   21.807979    0.444344     0.096844     2.717480
  157   -6.090374   10.548837   12.962633    0.601854     0.129421     4.814405
  158   -6.087038   10.543058   20.461315    0.339028     0.028705     2.328634
  159    9.070186    9.747140   14.305410    0.717883     0.083267    10.423369
  160    9.070406    9.746758   21.807979    0.427120     0.083531     2.543476
  161    5.667654    7.169144   14.569567    0.576713     0.011591     7.765370
  162    5.665544    7.169361   22.071201    0.377209     0.030938     2.204346
  163    7.049259   10.599968   14.569567    1.100437     0.011591    29.057771
  164    7.050501   10.601686   22.071201    0.381887     0.030938     2.501751
  165    1.980787    7.688050   14.569567    0.592550     0.109095     7.866576
  166    1.981654    7.686115   22.071201    0.393607     0.069639     2.337512
  167    9.028408    5.562555   10.786794    0.397930     0.038079     2.509741
  168    9.031149    5.559182   18.319573    0.330367     0.019614     1.677895
  169    9.032677    5.557502   25.846988    0.403021     0.034321    18.065338
  170    3.977536    8.492764   10.786794    0.396838     0.038079     2.826676
  171    3.973244    8.492076   18.319573    0.335032     0.019614     1.842134
  172    3.971010    8.491593   25.846988    0.420444     0.034325    14.764590
  173    1.691757   11.401843   10.786794    0.398978     0.104586     2.404095
  174    1.693307   11.405903   18.319573    0.330172     0.081959     1.720508
  175    1.693991   11.408080   25.846988    0.409020     0.107428     8.809394
  176    0.303111   10.600108   10.786794    0.400305     0.038079     2.656223
  177    0.298819   10.600795   18.319573    0.332839     0.019614     1.826154
  178    0.296600   10.601279   25.846988    0.410172     0.034321     7.823075
  179    5.366182    7.691029   10.786794    0.391343     0.038079     2.039220
  180    5.367732    7.686968   18.319573    0.330247     0.019614     1.692100
  181    5.368430    7.684792   25.846988    0.423884     0.034325    14.718426
  182    9.028408    7.166026   10.786794    0.397362     0.104586     2.415636
  183    9.031149    7.169399   18.319573    0.333093     0.081959     1.726723
  184    9.032692    7.171079   25.846988    0.405896     0.107428     6.342266
  185    3.374834    8.492904   14.569567    1.022237     0.011591    24.932280
  186    3.376076    8.491185   22.071201    0.381785     0.030938     2.480444
  187    5.655212   11.404821   14.569567    0.597822     0.011591     8.527969
  188    5.656079   11.406756   22.071201    0.375522     0.030938     2.180376
  189    5.667654    5.559437   14.569567    0.592779     0.109095     7.876342
  190    5.665544    5.559220   22.071201    0.393458     0.069639     2.340176
  191    6.258148    6.364291    9.171398    0.742006     0.155280   205.105375
  192    6.196594    6.364291   16.712048    0.377151     0.074315     2.419187
  193    6.192964    6.364291   24.215404    0.415086     0.095528     3.916864
  194    7.152165    6.364291   10.519489    0.480747     0.011992     9.952848
  195    7.116920    6.364291   18.057925    0.334383     0.088337     1.740039
  196    7.117244    6.364291   25.571023    0.371082     0.030472     3.916864
  197    6.056988   10.491011    9.171398    0.661401     0.179560   327.126529
  198    6.087765   10.544318   16.712048    0.379766     0.092386     2.428065
  199    6.089580   10.547462   24.215404    0.382563     0.095528     3.651420
  200    5.609980    9.716770   10.519489    0.437194     0.109920     4.523215
  201    5.627602    9.747293   18.057925    0.344892     0.089858     1.854562
  202    5.627441    9.747013   25.571023    0.457330     0.113253     5.426082
  203    2.382563    8.601860    9.171398    0.741622     0.155280   205.582110
  204    2.413340    8.548553   16.712048    0.377568     0.074315     2.418300
  205    2.415155    8.545409   24.215404    0.413756     0.095528     3.914201
  206    1.935555    9.376102   10.519489    0.413535     0.011992     4.507235
  207    1.953177    9.345579   18.057925    0.333334     0.088337     1.738264
  208    1.953016    9.345859   25.571023    0.371655     0.030472     3.850281
  209    8.506323    6.364291   12.962633    0.604610     0.129421     4.815293
  210    8.499651    6.364291   20.461315    0.337080     0.028705     2.313542
  211    7.580603    6.364291   14.305410    0.717863     0.083267    10.421593
  212    7.580162    6.364291   21.807979    0.430458     0.083531     2.824013
  213    4.932901    8.544035   12.962633    0.583868     0.129421     4.719413
  214    4.936237    8.549813   20.461315    0.331061     0.028705     2.335737
  215    5.395761    9.345731   14.305410    0.715061     0.154776     9.782395
  216    5.395981    9.346113   21.807979    0.444344     0.096844     2.717480
  217    1.258476   10.548837   12.962633    0.600376     0.129421     4.815293
  218    1.261812   10.543058   20.461315    0.338454     0.028705     2.327747
  219    1.721336    9.747140   14.305410    0.717883     0.083267    10.423369
  220    1.721556    9.746758   21.807979    0.427963     0.083531     2.539925
  221   13.004062    1.323760   14.569567    0.592550     0.109095     7.866576
  222   13.004929    1.321825   22.071201    0.393607     0.069639     2.337512
  223   11.326386    4.235817   10.786794    0.400344     0.038079     2.658887
  224   11.322094    4.236505   18.319573    0.332839     0.019614     1.826154
  225   11.319875    4.236988   25.846988    0.410131     0.034321     7.851484
  226    9.329637    7.688050   14.569567    0.592550     0.109095     7.866576
  227    9.330504    7.686115   22.071201    0.393607     0.069639     2.337512
  228    7.651961   10.600108   10.786794    0.400379     0.038079     2.661550
  229    7.647669   10.600795   18.319573    0.332863     0.019614     1.827041
  230    7.645450   10.601279   25.846988    0.410118     0.034321     7.815085
  231   -1.994867   11.926846   10.786794    0.397904     0.038079     2.507965
  232   -1.992126   11.923473   18.319573    0.330367     0.019614     1.677895
  233   -1.990598   11.921793   25.846988    0.402954     0.034321    18.052022
  234   -5.355621   11.923727   14.569567    0.592779     0.109095     7.876342
  235   -5.357731   11.923511   22.071201    0.393448     0.069639     2.339288
  236    5.353983   11.926846   10.786794    0.397874     0.038079     2.506189
  237    5.356724   11.923473   18.319573    0.330367     0.019614     1.677895
  238    5.358252   11.921793   25.846988    0.403034     0.034321    18.078655
  239    1.993229   11.923727   14.569567    0.592779     0.109095     7.876342
  240    1.991119   11.923511   22.071201    0.393448     0.069639     2.339288
  241    2.510779    0.000000   10.146894    6.690272     0.671546    15.683437
  242    2.477826    0.000000   17.699697    7.053892     0.674621    18.902510
  243    2.474931    0.000000   25.203742    7.137722     0.702398    33.015473
  244    2.487747    0.000000   14.912297    6.929825     0.634634    17.627665
  245    2.484705    0.000000   22.414669    7.266781     0.687824    22.446509
  246    2.419036    4.189892   10.146894    6.671261     0.701610    15.481912
  247    2.435512    4.218430   17.699697    7.048024     0.717454    18.948674
  248    2.436959    4.220937   25.203742    7.088606     0.702398    34.233501
  249    2.430551    4.209838   14.912297    6.976158     0.643767    18.983298
  250    2.432073    4.212473   22.414669    7.279840     0.687824    22.367497
  251   -1.255389    2.174398   10.146894    6.690229     0.671546    15.683437
  252   -1.238913    2.145861   17.699697    7.054489     0.674621    18.903398
  253   -1.237466    2.143353   25.203742    7.135589     0.702398    33.130884
  254   -1.243874    2.154452   14.912297    6.930040     0.634634    17.634767
  255   -1.242352    2.151818   22.414669    7.267559     0.687824    22.444733
  256    4.872082    0.000000   13.949544    6.413919     0.625297    13.509276
  257    4.869760    0.000000   21.448866    7.287968     0.670409    26.484111
  258    4.873199    0.000000   11.150041    7.285180     0.663703    24.792899
  259    4.862558    0.000000   18.662303    7.477863     0.683483    24.369430
  260    4.840202    0.000000   26.146471    7.150692     0.615614   215.039579
  261    1.238384    2.144944   13.949544    6.423630     0.665989    13.549226
  262    1.239545    2.146955   21.448866    7.283444     0.713405    26.295015
  263    1.237826    2.143977   11.150041    7.284652     0.665913    24.887891
  264    1.243146    2.153192   18.662303    7.473828     0.683483    24.245142
  265    1.254324    2.172552   26.146471    7.122032     0.630124   219.360381
  266   12.261659    4.219346   13.949544    6.416261     0.625297    13.506612
  267   12.262820    4.217335   21.448866    7.286862     0.670409    26.472570
  268   12.261101    4.220314   11.150041    7.282768     0.663703    24.791123
  269   12.266421    4.211098   18.662303    7.481856     0.683483    24.371206
  270   12.277599    4.191738   26.146471    7.161290     0.615614   222.241212
  271    9.859629    0.000000   10.146894    6.690260     0.671546    15.681662
  272    9.826676    0.000000   17.699697    7.053892     0.674621    18.902510
  273    9.823781    0.000000   25.203742    7.137714     0.702398    33.023463
  274    9.836597    0.000000   14.912297    6.929825     0.634634    17.627665
  275    9.833555    0.000000   22.414669    7.271898     0.705768    22.453611
  276    9.767886    4.189892   10.146894    6.671244     0.701610    15.481024
  277    9.784362    4.218430   17.699697    7.048038     0.717454    18.949562
  278    9.785809    4.220937   25.203742    7.088623     0.702398    34.247705
  279    9.779401    4.209838   14.912297    6.976179     0.643767    18.984185
  280    9.780923    4.212473   22.414669    7.273133     0.687824    22.362170
  281    6.093461    2.174398   10.146894    6.690229     0.671546    15.683437
  282    6.109937    2.145861   17.699697    7.054489     0.674621    18.903398
  283    6.111384    2.143353   25.203742    7.138155     0.702398    33.150415
  284    6.104976    2.154452   14.912297    6.929937     0.634634    17.631216
  285    6.106498    2.151818   22.414669    7.267525     0.687824    22.440294
  286   12.220932    0.000000   13.949544    6.413919     0.625297    13.509276
  287   12.218610    0.000000   21.448866    7.288133     0.670409    26.485886
  288   12.222049    0.000000   11.150041    7.285180     0.663703    24.792899
  289   12.211408    0.000000   18.662303    7.477799     0.683483    24.365879
  290   12.189052    0.000000   26.146471    7.150558     0.615614   214.878004
  291    8.587234    2.144944   13.949544    6.423630     0.665989    13.549226
  292    8.588395    2.146955   21.448866    7.283444     0.713405    26.295015
  293    8.586676    2.143977   11.150041    7.284690     0.665913    24.889666
  294    8.591996    2.153192   18.662303    7.473848     0.683483    24.246029
  295    8.603174    2.172552   26.146471    7.120057     0.630124   219.333748
  296    4.912809    4.219346   13.949544    6.416095     0.625297    13.509276
  297    4.913970    4.217335   21.448866    7.286878     0.670409    26.470794
  298    4.912251    4.220314   11.150041    7.282768     0.663703    24.791123
  299    4.917571    4.211098   18.662303    7.481856     0.683483    24.371206
  300    4.928749    4.191738   26.146471    7.161304     0.615614   222.163976
  301   -1.163646    6.364291   10.146894    6.690272     0.671546    15.683437
  302   -1.196599    6.364291   17.699697    7.053892     0.674621    18.902510
  303   -1.199494    6.364291   25.203742    7.137638     0.702398    33.033229
  304   -1.186678    6.364291   14.912297    6.929825     0.634634    17.627665
  305   -1.189720    6.364291   22.414669    7.267170     0.687824    22.452723
  306   -1.255389   10.554183   10.146894    6.671244     0.701610    15.481024
  307   -1.238913   10.582720   17.699697    7.048012     0.717454    18.947787
  308   -1.237466   10.585228   25.203742    7.088602     0.702398    34.261022
  309   -1.243874   10.574129   14.912297    6.976158     0.643767    18.983298
  310   -1.242352   10.576763   22.414669    7.278509     0.687824    22.378150
  311    9.767886    8.538689   10.146894    6.690229     0.671546    15.683437
  312    9.784362    8.510151   17.699697    7.054475     0.674621    18.902510
  313    9.785809    8.507644   25.203742    7.136831     0.702398    33.124669
  314   -4.918299    8.518743   14.912297    6.930040     0.634634    17.634767
  315   -4.916777    8.516108   22.414669    7.267567     0.687824    22.446509
  316    1.197657    6.364291   13.949544    6.413824     0.625297    13.508388
  317    1.195335    6.364291   21.448866    7.287968     0.670409    26.484111
  318    1.198774    6.364291   11.150041    7.285180     0.663703    24.792899
  319    1.188133    6.364291   18.662303    7.477843     0.683483    24.368542
  320    1.165777    6.364291   26.146471    7.150613     0.615614   214.957016
  321   -2.436041    8.509235   13.949544    6.422408     0.665989    13.548338
  322   -2.434880    8.511246   21.448866    7.283444     0.713405    26.295015
  323   -2.436599    8.508267   11.150041    7.284668     0.665913    24.888779
  324   -2.431279    8.517483   18.662303    7.473828     0.683483    24.245142
  325   -2.420101    8.536843   26.146471    7.119463     0.630124   217.799673
  326   -6.110466   10.583637   13.949544    6.416649     0.625297    13.510163
  327   -6.109305   10.581626   21.448866    7.287614     0.670409    26.470794
  328   -6.111024   10.584604   11.150041    7.282751     0.663703    24.790235
  329   -6.105704   10.575389   18.662303    7.481417     0.683483    24.371206
  330   -6.094526   10.556029   26.146471    7.159586     0.615614   220.746198
  331    6.185204    6.364291   10.146894    6.690243     0.671546    15.680774
  332    6.152251    6.364291   17.699697    7.053892     0.674621    18.902510
  333    6.149356    6.364291   25.203742    7.137724     0.702398    33.014585
  334    6.162172    6.364291   14.912297    6.929825     0.634634    17.627665
  335    6.159130    6.364291   22.414669    7.272699     0.705768    22.451836
  336    6.093461   10.554183   10.146894    6.671261     0.701610    15.481912
  337    6.109937   10.582720   17.699697    7.048054     0.717454    18.950450
  338    6.111384   10.585228   25.203742    7.088602     0.702398    34.230837
  339    6.104976   10.574129   14.912297    6.976149     0.643767    18.983298
  340    6.106498   10.576763   22.414669    7.278026     0.687824    22.366609
  341    2.419036    8.538689   10.146894    6.690229     0.671546    15.683437
  342    2.435512    8.510151   17.699697    7.054489     0.674621    18.903398
  343    2.436959    8.507644   25.203742    7.138934     0.702398    33.019024
  344    2.430551    8.518743   14.912297    6.930040     0.634634    17.634767
  345    2.432073    8.516108   22.414669    7.267575     0.687824    22.448284
  346    8.546507    6.364291   13.949544    6.413919     0.625297    13.509276
  347    8.544185    6.364291   21.448866    7.288201     0.670409    26.486774
  348    8.547624    6.364291   11.150041    7.285180     0.663703    24.792899
  349    8.536983    6.364291   18.662303    7.477863     0.683483    24.369430
  350    8.514627    6.364291   26.146471    7.150638     0.615614   214.911740
  351    4.912809    8.509235   13.949544    6.422408     0.665989    13.548338
  352    4.913970    8.511246   21.448866    7.282125     0.713405    26.293239
  353    4.912251    8.508267   11.150041    7.284690     0.665913    24.889666
  354    4.917571    8.517483   18.662303    7.473828     0.683483    24.245142
  355    4.928749    8.536843   26.146471    7.120037     0.630124   217.725987
  356    1.238384   10.583637   13.949544    6.418126     0.625297    13.509276
  357    1.239545   10.581626   21.448866    7.287337     0.670409    26.473457
  358    1.237826   10.584604   11.150041    7.282768     0.663703    24.791123
  359    1.243146   10.575389   18.662303    7.481653     0.683483    24.370318
  360    1.254324   10.556029   26.146471    7.159518     0.615614   220.597940
 --------------------------------------------------------------------------------
    VACUUM CHARGE:               0.0000
    VACUUM VOLUME:               0.0000
    NUMBER OF ELECTRONS:       960.0000
