    #         X           Y           Z       CHARGE      MIN DIST   ATOMIC VOL
 --------------------------------------------------------------------------------
    1    0.000000    0.000000    0.000000   10.988836     1.266394   129.316003
    2    2.953371    1.707616    2.318126   10.955955     1.251571    17.221064
    3   -0.019886    3.404819    4.633300   10.970102     1.229247    17.249473
    4    0.000088    0.000280    6.906703   11.033504     1.264014    23.625474
    5   13.227930    2.545716    0.000000   11.008497     1.283384   118.643169
    6    1.452684    4.248660    2.340266   10.985568     1.257081    17.395956
    7    1.483373    0.839284    4.610176   10.958250     1.256930    17.186441
    8   13.212453    2.557223    6.981537   10.918648     1.261347    20.480087
    9    1.469770    2.545716    0.000000   11.047747     1.265736   124.450995
   10   -1.476987    4.248215    2.319061   10.974573     1.252115    17.307178
   11    4.410177    0.840876    4.648897   10.968916     1.251380    17.267228
   12    1.453823    2.531766    6.897503   11.027790     1.253815    22.006172
   13    2.939540    0.000000    0.000000   11.011232     1.277207   104.091646
   14    0.014029    1.699100    2.320439   10.956809     1.250052    17.215737
   15    2.950188    3.392943    4.625428   10.975541     1.250259    17.301851
   16    2.955788    0.009457    6.981734   10.920180     1.283975    20.487189
   17    5.879080    0.000000    0.000000   11.045613     1.279084   137.608712
   18    8.814475    1.707921    2.321816   10.988693     1.259745    17.378200
   19    5.884004    3.408510    4.642796   10.958049     1.260501    17.221064
   20   -1.452647   12.728174    6.961168   11.028580     1.284697    23.038655
   21    4.409310    2.545716    0.000000   11.042846     1.296153   130.585522
   22    7.348813    4.242958    2.320488   10.940144     1.258649    17.103878
   23    7.373895    0.841385    4.662082   10.986033     1.266562    17.372873
   24    4.416541    2.547880    6.951426   11.031938     1.284735    23.610382
   25    7.348850    2.545716    0.000000   11.027693     1.264741   161.117000
   26    4.420407    4.241341    2.321570   10.979171     1.253271    17.324934
   27   10.284275    0.859408    4.625920   10.975969     1.250449    17.310729
   28    7.345374    2.547180    6.983456   10.970061     1.287798    22.244096
   29    8.818620    0.000000    0.000000   11.055297     1.291243   175.578858
   30    5.885378    1.687695    2.356847   10.970950     1.263228    17.332924
   31    8.803349    3.392447    4.643091   10.957052     1.251262    17.220176
   32    1.487767   12.727295    7.001758   10.969067     1.286404    21.666154
   33   11.758160    0.000000    0.000000   11.047588     1.254991   135.786997
   34   11.764179    3.399613    4.648651   10.966025     1.249279    17.245922
   35    4.430313   12.724508    6.897158   11.032345     1.274260    22.032806
   36   10.288390    2.545716    0.000000   11.031858     1.273933   130.814568
   37   13.229841    0.865747    4.609930   10.947935     1.238764    17.124296
   38   10.282967    2.552462    6.951820   11.018438     1.257234    23.513615
   39   10.293211    4.253586    2.356748   10.961199     1.261423    17.274330
   40   11.742331    1.704281    2.318224   10.946207     1.255312    17.171348
   41   -2.939540    5.091432    0.000000   11.047165     1.274097   134.533458
   42    0.017424    6.796006    2.337363   10.972634     1.280021    17.337362
   43   -2.937791    8.481563    4.663116   10.972485     1.249274    17.310729
   44   -2.947683    5.107776    6.960627   11.035415     1.258999    23.072390
   45   -4.409310    7.637149    0.000000   11.051922     1.265070   176.028960
   46   -1.472283    9.315845    2.337413   10.970138     1.267306    17.323158
   47   -1.480220    5.948397    4.619180   10.981002     1.252982    17.329372
   48   -4.417100    7.653950    7.001611   10.966020     1.291456    21.643072
   49   -1.469770    7.637149    0.000000   11.022527     1.274587   126.385457
   50   -4.396082    9.346495    2.340168   10.978904     1.265227    17.362220
   51    1.473062    5.944145    4.662673   10.967365     1.247622    17.287647
   52   -1.467896    7.635659    6.983800   10.969093     1.277793    22.222790
   53    0.000000    5.091432    0.000000   11.042294     1.283709   117.083348
   54   -2.953378    6.793740    2.325654   10.978524     1.260212    17.338250
   55    0.000257    8.486183    4.664247   10.933306     1.260124    17.107429
   56   -0.014205    5.096486    6.951229   11.036337     1.267044    23.621036
   57    2.939540    5.091432    0.000000   11.056620     1.268695   174.443394
   58    5.867484    6.788101    2.356650   10.972716     1.252173    17.339138
   59    2.938305    8.473493    4.619032   10.984838     1.253273    17.348904
   60    2.928737    5.077609    7.000774   10.960008     1.275030    21.604010
   61    1.469770    7.637149    0.000000   11.011882     1.284358   126.673984
   62    4.408391    9.325786    2.318913   10.974863     1.257551    17.307178
   63    4.390291    5.922685    4.661394   10.973021     1.265620    17.303627
   64    1.472033    7.641705    6.983161   10.965945     1.262104    22.220126
   65    4.409310    7.637149    0.000000   11.030443     1.293572   136.293029
   66    1.455006    9.346508    2.337314   10.964444     1.248645    17.288535
   67    7.358168    5.928846    4.642796   10.954216     1.255779    17.195318
   68    4.400962    7.623504    6.960184   11.042818     1.271029    23.056410
   69    5.879080    5.091432    0.000000   11.004330     1.264833   138.431679
   70    2.942024    6.774354    2.325555   10.962731     1.267288    17.250360
   71    5.872143    8.489505    4.648454   10.965959     1.249089    17.249473
   72    5.881505    5.093825    6.982767   10.973626     1.281610    22.263627
   73    8.818620    5.091432    0.000000   11.009493     1.287929   137.576752
   74    8.812116    8.477426    4.625428   10.976973     1.265104    17.313393
   75    8.819112    5.088441    6.983357   10.980669     1.272899    22.316006
   76    7.348850    7.637149    0.000000   11.042803     1.265821   120.885690
   77   10.282114    5.965886    4.661640   10.983749     1.263654    17.363108
   78    7.346476    7.630135    6.951229   11.027634     1.281716    23.604168
   79    7.350827    9.317614    2.317929   10.949770     1.253400    17.180226
   80    8.811293    6.780121    2.321324   10.986898     1.258590    17.367547
   81   -5.879080   10.182865    0.000000   11.054584     1.277207   124.965905
   82   -2.931346   11.883671    2.319159   10.973087     1.261481    17.293861
   83   -5.883945   10.204122    6.897404   11.030033     1.252824    22.013275
   84   -4.390688   11.043826    4.633054   10.953017     1.261880    17.144715
   85   -1.457813   11.036762    4.619573   10.973547     1.256064    17.289423
   86   -2.939540   10.182865    0.000000   11.029911     1.280549   128.234693
   87   -5.884680   11.867543    2.320537   10.966727     1.268129    17.268116
   88   -2.930817   10.194817    6.951574   11.035143     1.268431    23.608607
   89    0.000000   10.182865    0.000000   11.004433     1.274587   149.918603
   90    2.943413   11.863458    2.340414   10.983446     1.258209    17.381751
   91   -0.002815   10.182725    6.983357   10.983366     1.287166    22.321333
   92    1.465221   11.032918    4.663017   10.971548     1.239280    17.314280
   93    4.411191   11.009968    4.633005   10.962169     1.251266    17.208635
   94    2.939540   10.182865    0.000000   11.044668     1.254492   114.811532
   95    0.011266   11.889653    2.325752   10.974279     1.256754    17.319607
   96    2.946382   10.171167    6.950737   11.029913     1.257217    23.605056
   97    5.879080   10.182865    0.000000   11.025606     1.265736   110.415269
   98    5.879183   10.165096    6.982078   10.926355     1.268472    20.512047
   99    7.333983   11.024593    4.609979   10.952908     1.236160    17.149154
  100    5.870761   11.891550    2.320537   10.970211     1.251200    17.289423
  101    2.054841    0.818728    9.765591    0.316507     0.050188     1.613975
  102    3.413386    4.300186   10.014348    0.310413     0.038826     1.877645
  103    0.314501    2.142526   13.464674    0.297771     0.027884     1.922921
  104   -2.002393    5.053463   13.763271    0.317005     0.087712     1.919370
  105    1.698437    1.344393   13.464133    0.296005     0.028791     1.728498
  106    5.378866    0.791909   13.765682    0.316812     0.090362     2.017025
  107   -0.324290    2.188527    9.763672    0.314601     0.044974     1.608649
  108    2.017046    5.106414   10.009133    0.305595     0.042139     1.752468
  109    2.461747    0.000891   15.119086    0.462177     0.064913   131.923399
  110   -3.873564   12.728046   13.856899    0.307288     0.018316     1.944228
  111    2.219919    3.857409   15.429344    0.437156     0.088782   289.135963
  112    1.904940    3.301845   13.944476    0.293414     0.072435     1.546504
  113   13.466944    2.131146   15.119332    0.461689     0.065016   151.933853
  114   12.959175    3.008286   13.857145    0.308942     0.017934     2.001045
  115   -2.429493   12.727983   11.505711    0.372759     0.093413     2.614498
  116    4.022253    0.002100   10.157669    0.337458     0.064488     1.693875
  117    1.285512    2.231562   11.288196    0.353892     0.074411     2.445821
  118    1.755001    3.042704    9.977743    0.340577     0.133422     1.585567
  119   12.234145    4.258169   11.505907    0.376742     0.093729     2.634029
  120   12.683035    3.481865   10.157669    0.334653     0.064133     1.672569
  121    9.265496    0.803059   10.014545    0.303996     0.036907     1.543841
  122   10.612577    4.313003    9.973708    0.319845     0.062742     1.726723
  123    5.777004    1.377105    9.974053    0.339234     0.065691     1.731162
  124    7.698677    2.108222   13.976801    0.310218     0.060042     1.911380
  125    5.331091    5.004267   13.976260    0.357653     0.117700     2.484883
  126    3.955482    4.168598   13.968141    0.303856     0.029877     1.779102
  127    9.112295    1.337774   13.972176    0.315134     0.025662     2.096925
  128   12.687378    0.798031   13.464083    0.295249     0.083803     1.945116
  129    7.146507    2.191505   10.168936    0.333865     0.062393     1.853675
  130    9.221021    5.089892   10.168345    0.332881     0.063272     1.874094
  131    2.905427   12.721351   15.433182    0.455135     0.095627   289.496400
  132    3.541822   12.727410   13.947034    0.301728     0.040044     1.698314
  133    9.875399    4.155627   15.524153    0.421769     0.079569   305.058212
  134    9.318195    3.378598   14.217735    0.347136     0.087756     1.935350
  135    6.007854    2.094144   15.524153    0.431203     0.081259   306.125318
  136    5.616476    2.965505   14.217046    0.332503     0.083219     1.678783
  137    4.773063   12.727792   11.287556    0.372145     0.073910     2.530159
  138    3.835820   12.727334    9.977054    0.328711     0.057585     1.541178
  139    8.701259    2.177911   11.774984    0.358551     0.077015     2.648234
  140    9.089278    3.020721   10.417152    0.318900     0.109261     1.641496
  141    4.889131    4.103593   11.772623    0.366120     0.073956     2.705051
  142    5.422878    3.344842   10.415036    0.311576     0.024785     1.408899
  143   -1.679300    7.282378   10.158308    0.331095     0.059117     1.816388
  144   -0.204239   10.534403   10.156636    0.323921     0.057398     1.813725
  145    1.633297    5.510890   13.958400    0.280685     0.033804     1.799520
  146   -3.396631    8.558863   13.963271    0.290485     0.028939     1.993055
  147   -5.651427   11.387192   13.464182    0.295111     0.083767     1.786204
  148   -2.022661    7.719872   13.965091    0.282474     0.044597     1.725835
  149    1.669335    7.119910   13.964697    0.356421     0.108617     2.299338
  150   -3.938308    8.424590   10.009576    0.299714     0.039557     1.548280
  151   -1.573014   11.354034    9.970018    0.323655     0.065865     1.795082
  152   -1.702045    5.687626    9.970560    0.347621     0.068590     1.802184
  153   -1.184568    6.255601   15.515199    0.421526     0.070147   230.654658
  154   -0.237390    6.347832   14.205533    0.334691     0.079303     1.664579
  155   -1.334735   10.622599   15.514756    0.414137     0.068074   230.484205
  156   -1.732528    9.756394   14.206321    0.350272     0.095980     1.936238
  157   -5.122207    8.883404   15.433477    0.443723     0.050393   291.860545
  158   -5.443631    9.432082   13.947084    0.305282     0.040364     1.595332
  159    1.106619    6.288250   11.760618    0.354028     0.062964     2.625151
  160    0.181855    6.368415   10.403474    0.307779     0.035256     1.420440
  161   -2.462886    8.625154   11.763963    0.357287     0.067204     2.642019
  162   -1.929455    9.384350   10.406229    0.316616     0.113643     1.636170
  163   -6.057025   10.499195   11.287359    0.369329     0.074106     2.526608
  164   -5.591270    9.686145    9.976710    0.326598     0.057788     1.518096
  165    5.651126    7.040700    9.974151    0.332538     0.069154     1.741815
  166    7.032725   10.544624    9.765394    0.322195     0.054051     1.637945
  167    1.884414    7.632452   10.154668    0.355996     0.122162     1.851899
  168    9.019538    5.612566   13.975325    0.313174     0.045886     1.868767
  169    3.970922    8.467969   13.768043    0.299414     0.021782     1.776438
  170    1.762813   11.389305   13.960073    0.281033     0.080857     1.879420
  171    0.350503   10.616871   13.962041    0.283121     0.046640     1.626404
  172    5.347670    7.672381   13.769864    0.298285     0.021773     1.927360
  173    8.982176    7.222120   13.970946    0.303198     0.080396     2.171498
  174    3.277624    8.411568    9.969723    0.337673     0.071312     1.724947
  175    5.619651   11.358349    9.763574    0.319692     0.049554     1.696538
  176    5.670380    5.446140   10.165934    0.359535     0.126513     1.874094
  177    6.161893    6.472942   15.526613    0.435751     0.081360   326.124230
  178    7.112202    6.381601   14.218965    0.333781     0.086910     1.666354
  179    6.120438   10.598440   15.122727    0.448511     0.068061   136.727151
  180    5.612427    9.719175   13.862164    0.320497     0.104159     1.619302
  181    2.516819    8.574660   15.518643    0.423324     0.071570   254.639681
  182    1.969014    9.351039   14.207747    0.335782     0.082278     1.679671
  183    8.453434    6.443780   11.772869    0.371642     0.071770     2.697061
  184    7.529095    6.359848   10.414642    0.308278     0.029007     1.423104
  185    4.893555    8.473340   11.509794    0.316032     0.013969     2.220326
  186    5.343672    9.250267   10.161310    0.300110     0.072669     1.800408
  187    1.353504   10.540067   11.758896    0.353583     0.058910     2.622488
  188    1.744933    9.698835   10.401014    0.303841     0.039485     1.427543
  189   12.962262    1.372256    9.765000    0.334374     0.113085     1.874981
  190   11.318008    4.258856   13.765829    0.303386     0.022207     1.967310
  191    9.362685    7.618972   10.013167    0.317233     0.078656     1.679671
  192    7.663359   10.587366   13.464428    0.293832     0.027057     1.805735
  193   -1.970557   11.930384   13.762927    0.246023     0.023901     1.511881
  194   -5.291128   11.916981    9.763377    0.335297     0.107935     1.835031
  195    5.338624   11.929061   13.464969    0.297001     0.025817     1.994831
  196    1.916977   11.919171   10.007460    0.330358     0.076000     1.729386
  197    2.476820    0.000853   14.141278    7.348078     0.707591    33.000381
  198    2.596973    0.004697    9.535825    7.323902     0.692014    20.156937
  199    2.348817    4.072344   14.484992    7.363887     0.677421    40.824344
  200    2.510624    4.346161    9.576268    7.360183     0.703095    19.886165
  201   13.459602    2.144320   14.141524    7.347296     0.708363    33.179711
  202   13.396946    2.248389    9.535677    7.326553     0.698488    20.237724
  203   -2.372113   12.728517   10.523080    7.303750     0.672638    23.567769
  204   -2.431088   12.726341   13.367700    7.425872     0.729154    27.536124
  205    1.264899    2.196571   10.302515    7.324913     0.718581    23.130096
  206    1.260916    2.184861   13.138081    7.388290     0.695942    26.664329
  207   12.205308    4.308116   10.523277    7.303327     0.672513    23.584637
  208   12.236335    4.256718   13.367847    7.367686     0.692727    27.236056
  209    2.653596   12.726519   14.489124    7.334701     0.672418    39.417220
  210    2.327829   12.727346    9.575038    7.343187     0.704807    19.985596
  211    9.809973    4.231986   14.553331    7.302433     0.698973    39.284942
  212    9.630550    4.253510    9.793832    7.336163     0.681690    20.938179
  213    6.107416    2.111964   14.553380    7.301823     0.697478    38.422024
  214    6.217950    2.256472    9.793537    7.320075     0.667876    20.859167
  215    4.813423   12.728530   10.301875    7.316022     0.682229    23.047533
  216    4.829407   12.727626   13.137589    7.392572     0.694010    26.844547
  217    8.674333    2.140896   10.793289    7.346412     0.719870    24.905646
  218    8.641344    2.157965   13.643468    7.360245     0.656993    27.288435
  219    4.869480    4.144961   10.790927    7.340246     0.699794    24.792011
  220    4.901859    4.164232   13.641205    7.328022     0.665079    26.923559
  221   -1.221364    6.346394   14.544081    7.309037     0.691678    38.668826
  222   -1.161221    6.508327    9.784090    7.314451     0.672806    20.822768
  223   -1.239215   10.608267   14.543491    7.305334     0.708781    39.348861
  224   -1.134582   10.474235    9.784435    7.340077     0.686351    20.930189
  225   -4.999290    8.663200   14.489567    7.341974     0.671713    39.384372
  226    9.854955    8.377112    9.575038    7.360449     0.707734    20.027321
  227    1.151572    6.292259   10.778824    7.348223     0.691983    24.838175
  228    1.157429    6.327861   13.628757    7.358437     0.669407    26.922672
  229   -2.481222    8.583570   10.782169    7.348787     0.731044    24.927841
  230   -2.451988    8.560556   13.631512    7.413245     0.660901    27.440245
  231   -6.076419   10.534848   10.301678    7.320439     0.681603    23.059962
  232   -6.088045   10.546482   13.137442    7.395812     0.702827    26.883609
  233    6.127589    6.379718   14.555693    7.296526     0.690339    38.700786
  234    6.190105    6.218459    9.790634    7.301281     0.671633    20.828982
  235    6.111847   10.584019   14.144968    7.349923     0.714032    32.942675
  236    6.056444   10.482712    9.536809    7.328586     0.694888    20.116987
  237    2.458830    8.498046   14.547378    7.307714     0.685827    39.025711
  238    2.297001    8.467459    9.780154    7.298113     0.664319    20.773940
  239    8.498651    6.437149   10.791222    7.338505     0.722237    24.839063
  240    8.506272    6.404831   13.642189    7.372816     0.673515    27.326609
  241    4.865556    8.424259   10.527115    7.403966     0.691320    24.263785
  242    4.890454    8.469241   13.372866    7.385732     0.689216    26.684748
  243    1.324586   10.575643   10.777200    7.351568     0.727347    24.872799
  244    1.293265   10.569585   13.628511    7.430194     0.678073    27.505052
 --------------------------------------------------------------------------------
    VACUUM CHARGE:               0.0000
    VACUUM VOLUME:               0.0000
    NUMBER OF ELECTRONS:      1484.0001
