    #         X           Y           Z       CHARGE      MIN DIST   ATOMIC VOL
 --------------------------------------------------------------------------------
    1    0.000000    0.000000    0.000000   10.990432     1.266394    73.078106
    2    2.936476    1.698031    2.335740   10.972647     1.257316    17.343577
    3    0.005923    3.392243    4.640434   10.991242     1.256261    17.447447
    4    7.348431   12.728339    7.026211   11.030030     1.297360    24.994424
    5   13.227930    2.545716    0.000000   11.048877     1.283384    83.678142
    6    1.474459    4.245185    2.332443   10.982608     1.265190    17.373761
    7    1.461789    0.847087    4.645649   10.961539     1.256357    17.308954
    8   -1.465544    2.547078    6.975928   11.093620     1.271133    22.504214
    9    1.469770    2.545716    0.000000   11.031735     1.265736   124.698684
   10   -1.468080    4.243683    2.337462   10.996632     1.251598    17.468753
   11    4.405445    0.852433    4.638417   11.002071     1.265375    17.501601
   12    1.466294    2.533535    7.011451   11.079991     1.286938    24.039178
   13    2.939540    0.000000    0.000000   11.051097     1.277207    96.512708
   14   -0.003072    1.698655    2.333181   10.955033     1.250204    17.245034
   15    2.931346    3.394903    4.648601   10.981450     1.258349    17.428803
   16   -4.409597   12.725539    6.976420   11.100962     1.275644    22.548603
   17    5.879080    0.000000    0.000000   11.053365     1.279084   130.542021
   18    8.817643    1.696096    2.338347   10.960912     1.263632    17.267228
   19    5.872488    3.390499    4.645502   10.953058     1.247907    17.268116
   20    5.861773    0.001031    6.998216   11.064926     1.288655    24.372981
   21    4.409310    2.545716    0.000000   11.035079     1.276717    88.438393
   22    7.348453    4.242232    2.343563   10.928189     1.263504    17.103878
   23    7.334917    0.848640    4.638663   10.987542     1.261625    17.439457
   24    4.391643    2.550808    6.999741   11.080952     1.285630    24.090669
   25    7.348850    2.545716    0.000000   11.013358     1.277943   142.455077
   26    4.408854    4.243556    2.338397   10.966668     1.258911    17.306290
   27   10.291418    0.841308    4.648798   10.976694     1.270291    17.399507
   28    7.356052    2.549713    6.983702   11.064363     1.274285    23.436378
   29    8.818620    0.000000    0.000000   11.044573     1.274097    93.570621
   30    5.878250    1.701213    2.327769   10.979735     1.263406    17.348904
   31    8.825116    3.389952    4.645354   10.954117     1.277289    17.267228
   32    8.795148    0.000891    6.972779   11.080572     1.264739    23.538472
   33   11.758160    0.000000    0.000000   11.009674     1.283384   131.859479
   34   11.756823    3.388985    4.637974   10.996499     1.262133    17.474080
   35   11.770028    0.003322    7.012484   11.083820     1.290924    24.009881
   36   10.288390    2.545716    0.000000   11.022566     1.273933    92.898576
   37   13.231987    0.842250    4.645600   10.962405     1.259273    17.307178
   38   10.294343    2.529220    6.999200   11.068294     1.283163    24.036514
   39   10.284495    4.239789    2.327474   10.982849     1.250955    17.367547
   40   11.758101    1.694098    2.335641   10.969851     1.252678    17.318719
   41   -2.939540    5.091432    0.000000   11.057111     1.274097   130.684065
   42   -0.002697    6.787070    2.333526   10.950918     1.256941    17.208635
   43   -2.935821    8.486349    4.637728   10.978545     1.268821    17.361332
   44   11.766824    5.076171    6.997773   11.067694     1.282416    24.387186
   45   -4.409310    7.637149    0.000000   11.042043     1.279084    95.993360
   46   -1.469623    9.337432    2.333329   10.952179     1.254911    17.217513
   47   -1.465015    5.935885    4.654604   10.973821     1.264824    17.395068
   48   10.300574    7.615612    6.971746   11.072935     1.272964    23.486094
   49   -1.469770    7.637149    0.000000   11.003954     1.274587   126.189259
   50   -4.409538    9.328535    2.332640   10.976742     1.270728    17.341801
   51    1.467639    5.943000    4.638023   10.988519     1.263255    17.421701
   52   -1.468866    7.646733    6.986555   11.074143     1.275580    23.513615
   53    0.000000    5.091432    0.000000   11.042157     1.283709    97.861239
   54   -2.935998    6.784486    2.335887   10.970949     1.264932    17.328485
   55    0.000419    8.486667    4.638417   10.938996     1.255900    17.149154
   56    0.018644    5.078004    7.000627   11.076571     1.291906    24.079128
   57    2.939540    5.091432    0.000000   11.028275     1.283391    94.778883
   58    5.883489    6.786625    2.327573   10.968589     1.254303    17.284096
   59    2.941098    8.491847    4.654653   10.964953     1.255704    17.339138
   60    2.952290    5.112473    6.971844   11.082556     1.281110    23.562442
   61    1.469770    7.637149    0.000000   11.008559     1.284358   126.832008
   62    4.408149    9.335549    2.337905   10.998626     1.263658    17.479406
   63    4.416615    5.951655    4.638269   10.971481     1.254954    17.346240
   64    1.462223    7.634030    6.987047   11.057398     1.277427    23.409745
   65    4.409310    7.637149    0.000000   11.057191     1.268695   128.532098
   66    1.472489    9.332799    2.333427   10.959265     1.254166    17.258350
   67    7.349239    5.947111    4.644961   10.977317     1.255824    17.399507
   68    4.418746    7.651761    6.998265   11.059684     1.278637    24.237152
   69    5.879080    5.091432    0.000000   11.009207     1.280628   121.139593
   70    2.941326    6.793613    2.335887   10.968580     1.265315    17.309841
   71    5.884423    8.486514    4.638761   11.003690     1.257515    17.514917
   72    5.879352    5.083426    6.983702   11.062591     1.284069    23.436378
   73    8.818620    5.091432    0.000000   11.030414     1.277943   120.231399
   74    8.824308    8.491389    4.648995   10.983467     1.253638    17.442120
   75    8.811955    5.095722    6.983653   11.052814     1.268056    23.332509
   76    7.348850    7.637149    0.000000   11.034286     1.276717    93.130285
   77   10.295687    5.927076    4.638319   10.989795     1.274062    17.445671
   78    7.361475    7.649979    6.999347   11.082473     1.297537    24.143047
   79    7.351606    9.335561    2.335986   10.973302     1.258244    17.341801
   80    8.819671    6.788038    2.338151   10.965761     1.267004    17.304515
   81   -5.879080   10.182865    0.000000   11.015011     1.277207   128.338563
   82   -2.940047   11.877612    2.338003   10.997779     1.267029    17.475855
   83    8.809750   10.192068    7.012336   11.072036     1.298871    23.939747
   84   -4.414234   11.027202    4.641074   10.987648     1.278315    17.423477
   85   -1.475796   11.029799    4.654752   10.979774     1.260717    17.427028
   86   -2.939540   10.182865    0.000000   11.028741     1.280549    95.208567
   87   -5.876324   11.881074    2.333575   10.942877     1.258696    17.169573
   88   -2.961462   10.174222    7.000971   11.077864     1.278824    24.120853
   89    0.000000   10.182865    0.000000   11.023406     1.274587   142.816401
   90    2.934940   11.882818    2.332345   10.979443     1.259564    17.361332
   91    0.007231   10.179326    6.986998   11.060018     1.284080    23.380448
   92    1.469770   11.028654    4.638319   10.985944     1.261351    17.407497
   93    4.408575   11.037436    4.640729   10.993524     1.264854    17.457212
   94    2.939540   10.182865    0.000000   11.042979     1.283709    97.776013
   95   -0.005144   11.878795    2.336232   10.973953     1.245218    17.342689
   96    2.942744   10.205929    7.001168   11.075266     1.282417    24.100434
   97    5.879080   10.182865    0.000000   11.046114     1.265736    90.572604
   98    5.876140   10.185181    6.977207   11.105088     1.283330    22.629391
   99    7.351540   11.037054    4.645945   10.968654     1.260028    17.347128
  100    5.879278   11.876492    2.333083   10.943098     1.246746    17.173124
  101    1.993361    0.805566   14.543589    0.308831     0.022341     1.805735
  102    1.990980    0.806457   22.048717    0.290437     0.012955     2.032117
  103    3.382580    4.250977   14.496455    0.313029     0.035590     1.747142
  104    3.384101    4.246560   22.011029    0.307413     0.034805    13.586512
  105    0.300796    2.129530   10.813067    0.293587     0.014707     1.720508
  106    0.299039    2.125851   18.285821    0.309153     0.018726     2.094262
  107   -1.968507    5.020814   10.745515    0.300421     0.079130     1.748917
  108   -1.984785    5.045317   18.246461    0.342076     0.118635     1.934462
  109    1.693638    1.325491   10.812821    0.294674     0.014760     1.684997
  110    1.691955    1.321710   18.285673    0.305729     0.019074     1.813725
  111    5.331885    0.804879   10.745318    0.305943     0.078487     1.769336
  112    5.362573    0.803555   18.245969    0.342345     0.118646     2.065853
  113   -0.298679    2.128970   14.543737    0.309241     0.022291     1.815500
  114   -0.296820    2.127353   22.048766    0.290103     0.013112    11.932587
  115    1.990583    5.054825   14.496800    0.311287     0.035867     1.987729
  116    1.986571    5.053425   22.011521    0.307488     0.033991    13.488857
  117   -4.879394   12.723477    9.233439    0.366589     0.026139     2.171498
  118   -4.840342   12.727321   16.665553    0.358906     0.076042     2.376574
  119   -3.910786   12.726252   10.537053    0.316640     0.033327     1.571362
  120   -3.914901   12.727626   18.004887    0.292812     0.036437     1.637058
  121    2.377640    4.126771    9.173366    0.414610     0.083838     2.366809
  122    2.415920    4.184572   16.637165    0.291172     0.090151     2.009035
  123    1.936400    3.355623   10.530313    0.315208     0.099924     1.689436
  124    1.956212    3.388208   17.989635    0.360098     0.105680     2.047210
  125   13.458853    2.137294    9.233341    0.370082     0.026750     2.179488
  126   13.442715    2.171738   16.665849    0.349316     0.075929     2.365033
  127   12.976548    2.977050   10.537053    0.313305     0.032618     1.562484
  128   12.980053    2.973091   18.005280    0.291550     0.036766     1.627292
  129    4.825666    0.001400   12.891932    0.290134     0.028570     2.040995
  130    4.836278    0.000127   20.381955    0.350126     0.093941     2.503526
  131    3.912572    0.001044   14.246616    0.273117     0.040252     1.403573
  132   -3.435426   12.728097   21.744166    0.278221     0.034951     2.354380
  133    1.255331    2.174067   12.935868    0.343875     0.067173     2.258500
  134    1.253853    2.171381   20.414624    0.342580     0.068870     2.268266
  135    1.720719    2.979964   14.270822    0.361054     0.124625     1.977075
  136    1.719330    2.977228   21.764486    0.354182     0.135646     2.416524
  137   -2.411231    4.180244   12.892522    0.280580     0.028783     2.025903
  138   12.279568    4.187920   20.382152    0.349209     0.090012     2.502638
  139   -1.955095    3.388947   14.247059    0.273370     0.039931     1.414226
  140   12.740591    3.388539   21.744412    0.283252     0.034630     2.382789
  141    9.326822    0.805210   14.496701    0.314370     0.035441     1.730274
  142    9.327976    0.805656   22.011718    0.307821     0.033634    14.055257
  143   10.724779    4.235053   14.490699    0.307641     0.028018     1.644160
  144   10.727116    4.239101   22.001977    0.301074     0.041222     2.536374
  145    5.653919    1.326942   14.490010    0.308356     0.074110     1.751581
  146    5.656057    1.318808   22.002419    0.335190     0.111620     6.136302
  147    7.636881    2.121091   10.708516    0.302103     0.025003     1.823490
  148    7.642892    2.124604   18.231110    0.311943     0.029747     1.824378
  149    5.365153    5.052928   10.707434    0.317870     0.111160     1.828817
  150    5.367453    5.045406   18.230815    0.315737     0.072625     1.792418
  151    3.972149    4.241430   10.716585    0.295930     0.012521     1.573138
  152    3.973141    4.239585   18.240360    0.303379     0.037122     1.682334
  153    9.035507    1.320068   10.717274    0.294765     0.010545     1.626404
  154    9.037851    1.319903   18.240261    0.304409     0.036932     1.672569
  155   12.695778    0.802015   10.813067    0.308706     0.091358     1.627292
  156   12.705089    0.802995   18.285427    0.332166     0.101503     1.961983
  157    7.047834    2.130955   14.479334    0.294203     0.018040     1.714294
  158    7.056109    2.125635   21.993465    0.304921     0.050331     1.786204
  159    9.331489    5.040098   14.479186    0.294187     0.016290     1.632619
  160    9.328064    5.047913   21.992530    0.305194     0.051280     1.778214
  161    2.580784   12.724762    9.174153    0.413474     0.081025     2.349053
  162    2.516136   12.728517   16.637657    0.284929     0.036420     1.999270
  163    3.469488   12.727015   10.531395    0.302147     0.003065     1.562484
  164    3.434985   12.727639   17.990422    0.271514     0.039164     1.492350
  165    9.804255    4.147621    9.145863    0.346446     0.046079     1.992168
  166    9.767445    4.185361   16.613647    0.309854     0.040171     2.233642
  167    9.295024    3.355827   10.465417    0.324057     0.101429     1.745366
  168    9.305819    3.388883   17.959622    0.349143     0.084234     2.182152
  169    6.037867    2.164406    9.145764    0.323146     0.046150     1.861665
  170    6.089749    2.177364   16.613401    0.314584     0.040009     2.250510
  171    5.606041    3.000738   10.465516    0.344826     0.036156     1.771999
  172    5.630711    2.974071   17.959967    0.335724     0.081631     1.913156
  173    4.837167   12.728110   12.935917    0.356513     0.066394     2.303777
  174    4.840011   12.727894   20.414034    0.356708     0.068415     2.307328
  175   11.257483    0.000560   14.271905    0.303928     0.030316     1.566036
  176    3.909676   12.727614   21.764388    0.319147     0.073158     2.121783
  177    8.597493    2.170707   12.857246    0.330637     0.058104     2.247847
  178    8.601109    2.168517   20.359569    0.271599     0.048483     1.933574
  179    9.063748    2.972480   14.200515    0.360175     0.143952     2.186590
  180    9.065211    2.973206   21.714154    0.345241     0.092498     2.138651
  181    4.928705    4.198790   12.857049    0.337710     0.059571     2.286909
  182    4.927161    4.193927   20.359470    0.306991     0.046703     2.214999
  183    5.390984    3.395298   14.200712    0.330899     0.068705     2.053424
  184    5.391961    3.389812   21.714646    0.337052     0.073787     1.931799
  185   -1.677956    7.169004   14.480957    0.292849     0.019478     1.705416
  186   -1.686855    7.173141   21.993662    0.306010     0.050001     1.806623
  187   -0.300862   10.601559   14.480760    0.294208     0.017629     1.622853
  188   -0.292639   10.602259   21.993170    0.305393     0.050703     1.906053
  189    1.687149    5.561372   10.719537    0.293106     0.010077     1.558933
  190    1.685760    5.560773   18.240999    0.299991     0.037741     1.664579
  191   -3.374805    8.484808   10.720128    0.300964     0.008664     1.766673
  192   -3.375334    8.485801   18.240803    0.303863     0.037338     1.676120
  193   -5.654198   11.396140   10.813559    0.305914     0.091920     1.623741
  194   -5.656696   11.404338   18.285477    0.332194     0.101230     1.961095
  195   -1.981735    7.673960   10.711469    0.297385     0.023217     1.687661
  196   -1.980919    7.680031   18.231947    0.302718     0.031050     1.810174
  197    1.693278    7.173752   10.710583    0.316711     0.111579     1.873206
  198    1.686392    7.171219   18.231651    0.317890     0.071843     1.789755
  199   -3.966365    8.479475   14.497685    0.314751     0.036278     1.747142
  200   -3.966527    8.480697   22.012309    0.308218     0.033054    13.808456
  201   -1.694829   11.405534   14.491043    0.306479     0.028381     1.639721
  202   -1.692506   11.409531   22.002075    0.301111     0.041155     2.302001
  203   -1.677213    5.559768   14.490748    0.310726     0.073450     1.751581
  204   -1.685679    5.557171   22.002026    0.334531     0.111601     5.780305
  205   -1.141644    6.315184    9.147191    0.314565     0.050916     1.810174
  206   -1.158230    6.361681   16.614090    0.318562     0.038873     2.256725
  207   -0.203607    6.356373   10.468320    0.342575     0.038658     1.767560
  208   -0.238830    6.362827   17.960852    0.337828     0.081871     1.923809
  209   -1.308646   10.560153    9.147732    0.341132     0.050534     1.969973
  210   -1.259710   10.551077   16.614385    0.308834     0.039248     2.222989
  211   -1.741751    9.726545   10.468517    0.326221     0.103233     1.741815
  212   -1.718198    9.752524   17.960360    0.350115     0.085422     2.184815
  213   -4.962024    8.602141    9.173464    0.413206     0.082048     2.354380
  214    9.765027    8.543105   16.637608    0.286379     0.036511     2.000158
  215    9.287763    9.369038   10.531100    0.298893     0.002326     1.542953
  216    9.305540    9.338654   17.990471    0.271764     0.039353     1.495013
  217    1.172729    6.368033   12.858574    0.338651     0.059434     2.286021
  218    1.169371    6.363540   20.360258    0.310491     0.047442     2.230091
  219    0.245510    6.366251   14.202188    0.334113     0.068861     2.059639
  220    0.240271    6.363769   21.715089    0.338595     0.073067     1.934462
  221   -2.419102    8.530453   12.860001    0.324391     0.057077     2.217663
  222   -2.422475    8.532630   20.360651    0.268097     0.048589     1.909605
  223   -1.957704    9.335676   14.202877    0.361517     0.146059     2.191029
  224   -1.957917    9.337140   21.715138    0.345590     0.093039     2.135987
  225    8.604048   10.553063   12.935769    0.353699     0.066532     2.302001
  226    8.602975   10.555430   20.414230    0.348213     0.068117     2.292236
  227   -5.628440    9.749329   14.271708    0.301996     0.030193     1.566923
  228    9.067606    9.749469   21.764585    0.314124     0.073393     2.121783
  229    5.670593    7.170188   14.490158    0.308960     0.027905     1.691212
  230    5.662723    7.169462   22.002567    0.304000     0.040430     5.615178
  231    7.050075   10.599828   14.542950    0.306769     0.022884     1.794194
  232    7.052258   10.599993   22.047438    0.290614     0.013251     2.090711
  233    1.981294    7.690812   14.479284    0.299655     0.084519     1.700090
  234    1.979207    7.679535   21.993071    0.330752     0.117372     1.971749
  235    9.041930    5.553874   10.708516    0.303879     0.024427     1.708967
  236    9.034676    5.556153   18.231455    0.301592     0.030122     1.796857
  237    3.982232    8.510240   10.745220    0.298643     0.031389     1.717845
  238    3.970334    8.484694   18.246264    0.311004     0.043367     1.845685
  239    1.686333   11.409073   10.720029    0.302720     0.104278     1.770224
  240    1.688891   11.406756   18.240261    0.336936     0.109512     1.905166
  241    0.287414   10.608178   10.712059    0.299768     0.023234     1.605098
  242    0.293954   10.601966   18.232045    0.313524     0.030905     1.835031
  243    5.376779    7.704674   10.745072    0.297184     0.030307     1.672569
  244    5.363235    7.680298   18.245969    0.311663     0.043229     1.830593
  245    9.036322    7.165606   10.716438    0.302352     0.105955     1.643272
  246    9.034000    7.166548   18.239917    0.336890     0.109341     1.901615
  247    3.374291    8.496061   14.490699    0.309888     0.028432     1.703641
  248    3.378002    8.488665   22.002272    0.304533     0.040807     2.359707
  249    5.654881   11.405318   14.543048    0.307409     0.022693     1.957544
  250    5.653794   11.407252   22.047290    0.290921     0.013077     2.134212
  251    5.669954    5.561232   14.478350    0.302060     0.085461     1.700090
  252    5.661517    5.553493   21.992678    0.330870     0.117173     2.094262
  253    6.204377    6.415116    9.145371    0.344750     0.048008     1.975300
  254    6.189422    6.364952   16.612958    0.321127     0.040347     2.267378
  255    7.144030    6.371253   10.465565    0.344920     0.101963     1.824378
  256    7.109094    6.363590   17.959524    0.337264     0.081869     2.048985
  257    6.111862   10.587532    9.235063    0.371320     0.093157     2.191917
  258    6.094225   10.554870   16.665111    0.341483     0.075674     2.320644
  259    5.627117    9.747726   10.537742    0.355806     0.130389     1.843021
  260    5.631468    9.753224   18.004296    0.355379     0.116654     2.062302
  261    2.447358    8.582169    9.147486    0.344102     0.049581     1.989504
  262    2.417757    8.542736   16.613499    0.314610     0.040197     2.254949
  263    1.943403    9.373760   10.469058    0.349902     0.105346     1.828817
  264    1.956602    9.338451   17.960065    0.335657     0.059237     2.052536
  265    8.520955    6.361528   12.857196    0.340304     0.059614     2.295787
  266    8.517097    6.364061   20.359421    0.311912     0.046497     2.238969
  267    7.594008    6.363680   14.200761    0.332946     0.068488     1.950442
  268    7.588276    6.362941   21.714499    0.338237     0.074094     2.017025
  269    4.934959    8.548413   12.891391    0.287774     0.029927     2.038332
  270    4.930307    8.538396   20.381807    0.312285     0.089329     2.181264
  271    5.392557    9.340131   14.245435    0.357485     0.101769     1.964647
  272    5.391668    9.338005   21.743674    0.351008     0.115922     2.813360
  273    1.248040   10.560776   12.859706    0.336614     0.059052     2.276256
  274    1.252560   10.558192   20.360012    0.306855     0.046662     2.229204
  275    1.714112    9.758634   14.202729    0.330884     0.069259     1.938013
  276    1.716375    9.753288   21.714843    0.337112     0.073824     2.025015
  277   13.003849    1.323391   14.542802    0.335783     0.101923     2.109354
  278   13.002614    1.319801   22.047979    0.301308     0.093052    11.491363
  279   11.334425    4.216495   10.746647    0.307085     0.034043     1.753356
  280   11.319676    4.241507   18.246953    0.311507     0.043933     1.854562
  281    9.339264    7.675551   14.496111    0.320410     0.068783     2.066741
  282    9.333730    7.673832   22.011226    0.339022     0.112948    14.258558
  283    7.650601   10.591796   10.814347    0.290386     0.018721     1.647711
  284    7.648183   10.599929   18.285673    0.309582     0.019599     1.808398
  285   -2.016701   11.923320   10.746204    0.304517     0.034811     1.740927
  286   -1.986541   11.923575   18.247002    0.311182     0.044049     1.716957
  287   -5.355621   11.923091   14.542605    0.335645     0.101781     1.987729
  288   -5.357929   11.920291   22.047979    0.301901     0.093081    11.666254
  289    5.347310   11.922111   10.814347    0.289613     0.018452     1.534076
  290    5.356099   11.923129   18.285575    0.309143     0.019809     1.807510
  291    1.977539   11.926311   14.497046    0.322160     0.067828     2.095150
  292    1.978928   11.920596   22.011472    0.338728     0.112514    14.100534
  293   -4.894834   12.724381   10.222909    7.346690     0.696066    22.026591
  294   -4.878247   12.727041   17.656942    7.355325     0.695945    25.296267
  295   -4.862543   12.728377   14.889862    7.349368     0.671654    25.360187
  296   -4.836440   12.727537   22.343575    7.305587     0.678170   241.006117
  297    2.417911    4.190593   10.156390    7.311116     0.711094    21.548080
  298    2.435306    4.218074   17.628110    7.354976     0.709699    25.455179
  299    2.445646    4.235448   14.861030    7.364344     0.684548    25.153336
  300    2.429133    4.205981   22.323255    7.279905     0.709872   220.523367
  301   13.466665    2.123840   10.222810    7.346338     0.696402    22.032806
  302   13.461352    2.138618   17.657237    7.366002     0.696125    25.310472
  303   -1.242911    2.153014   14.890108    7.349552     0.671340    25.393035
  304   13.440856    2.175034   22.343723    7.307513     0.677942   263.107281
  305    4.870516    0.002075   13.882582    7.443514     0.702496    25.863556
  306    4.876726    0.000127   21.373786    7.345008     0.709974    25.894628
  307   -2.493590   12.728466   11.114813    7.379215     0.711386    24.138608
  308   -2.469655   12.728174   18.608280    7.343042     0.693362    25.144458
  309    1.238134    2.144129   13.927650    7.310098     0.702987    25.054793
  310    1.235224    2.139216   21.406750    7.287102     0.708448    26.222217
  311    1.242786    2.152899   11.167704    7.387789     0.707730    24.245142
  312    1.241507    2.149870   18.636275    7.371613     0.671896    25.418780
  313   -2.433131    4.219168   13.883172    7.452488     0.702261    25.866219
  314   12.259432    4.223050   21.373983    7.340755     0.702396    25.873321
  315   -2.427531    4.205829   11.115207    7.383110     0.711940    24.167905
  316   12.257816    4.224909   18.608625    7.343060     0.693584    25.145346
  317    2.505443   12.727435   10.157177    7.320337     0.712203    21.568499
  318    2.476805   12.727525   17.628553    7.444025     0.701024    25.847576
  319    9.808143    0.001502   14.861818    7.358166     0.684521    25.232348
  320    2.491473   12.727321   22.323944    7.254856     0.708547   224.588490
  321    9.800845    4.191000   10.130559    7.364522     0.751818    21.705217
  322    9.789183    4.219372   17.604543    7.358412     0.719614    25.416117
  323    9.779365    4.212498   14.833773    7.379199     0.687654    25.274073
  324    9.765269    4.193304   22.292406    7.286981     0.714130   159.862573
  325    6.076793    2.145300   10.130510    7.362184     0.661623    21.722972
  326    6.108048    2.140273   17.604297    7.359910     0.677962    25.434760
  327    6.107166    2.156642   14.833921    7.383562     0.703781    25.368177
  328    6.097510    2.174360   22.293587    7.256523     0.688802   161.879599
  329   12.222328    0.000305   13.927699    7.350296     0.687807    25.236786
  330    4.877410   12.728110   21.406160    7.300922     0.691355    26.130776
  331    4.856076   12.726468   11.168688    7.382973     0.679491    24.286867
  332    4.864505   12.727397   18.636472    7.352230     0.672108    25.456955
  333    8.582112    2.139687   13.847994    7.327696     0.705582    25.306033
  334    8.584273    2.134647   21.351596    7.367264     0.725323    26.261279
  335    8.573786    2.141126   11.070435    7.384767     0.675963    24.289530
  336    8.583898    2.148559   18.585402    7.365949     0.684417    25.116049
  337    4.910377    4.228651   13.847748    7.345275     0.689203    25.343319
  338    4.906518    4.225787   21.351498    7.336516     0.686510    25.982518
  339    4.913860    4.231960   11.070139    7.372621     0.673667    24.340133
  340    4.917637    4.218799   18.585796    7.370648     0.691901    25.255430
  341   -1.179373    6.336466   10.131839    7.372588     0.659948    21.795770
  342   -1.199531    6.358881   17.604986    7.354045     0.676980    25.421444
  343   -1.185178    6.366964   14.834905    7.382604     0.704593    25.351309
  344   -1.165359    6.367154   22.293390    7.256668     0.689390   168.197007
  345   -1.271674   10.581906   10.132429    7.367165     0.749810    21.741615
  346   -1.241037   10.586603   17.605330    7.358086     0.718502    25.419668
  347   -1.241787   10.575732   14.834856    7.379689     0.687732    25.282951
  348   -1.251362   10.553750   22.292948    7.286866     0.714016   164.795052
  349   -4.926735    8.535035   10.156488    7.323588     0.711475    21.567611
  350    9.784391    8.508751   17.628553    7.442244     0.701162    25.831596
  351   -4.903542    8.494355   14.861768    7.359642     0.685187    25.259869
  352    9.776080    8.520958   22.324141    7.254115     0.708974   223.611937
  353    1.207600    6.366747   13.849372    7.341212     0.688662    25.358412
  354    1.207093    6.361490   21.352285    7.330950     0.680651    25.998498
  355    1.208438    6.372246   11.073633    7.376224     0.695524    24.336582
  356    1.195621    6.368275   18.586681    7.371433     0.709332    25.280287
  357   -2.438077    8.501916   13.850798    7.333602     0.705330    25.335329
  358   -2.443485    8.501228   21.352630    7.370855     0.725288    26.280810
  359   -2.433109    8.494915   11.074075    7.383465     0.689540    24.285979
  360   -2.430860    8.506854   18.586189    7.376176     0.692288    25.132917
  361   -6.110826   10.584948   13.927551    7.355058     0.687789    25.243889
  362    8.584383   10.587914   21.406356    7.314182     0.691119    26.152083
  363    8.592827   10.568757   11.168835    7.385457     0.679002    24.296632
  364    8.590490   10.576420   18.636620    7.351258     0.672623    25.438311
  365    6.167956    6.390448   10.130067    7.341519     0.654594    21.688349
  366    6.148320    6.366238   17.603854    7.353092     0.677288    25.371728
  367    6.162702    6.362712   14.833527    7.375245     0.689129    25.260756
  368    6.182889    6.359237   22.293390    7.264276     0.695150   183.222603
  369    6.119564   10.600031   10.224581    7.309427     0.714204    21.872118
  370    6.113075   10.587519   17.656499    7.318165     0.708926    25.116049
  371    6.105733   10.575185   14.889124    7.372835     0.671217    25.350422
  372    6.092189   10.551803   22.342246    7.312544     0.713991   241.535231