 vasp.5.4.4.18Apr17-6-g9f103f2a35 (build Feb 03 2021 10:20:21) gamma-only       
  
 executed on             LinuxGNU date 2024.03.01  13:47:22
 running on   40 total cores
 distrk:  each k-point on   40 cores,    1 groups
 distr:  one band on NCORES_PER_BAND=  20 cores,    2 groups


--------------------------------------------------------------------------------------------------------


 INCAR:
 POTCAR:    PAW_PBE H 15Jun2001                   
 POTCAR:    PAW_PBE O 08Apr2002                   

 ----------------------------------------------------------------------------- 
|                                                                             |
|           W    W    AA    RRRRR   N    N  II  N    N   GGGG   !!!           |
|           W    W   A  A   R    R  NN   N  II  NN   N  G    G  !!!           |
|           W    W  A    A  R    R  N N  N  II  N N  N  G       !!!           |
|           W WW W  AAAAAA  RRRRR   N  N N  II  N  N N  G  GGG   !            |
|           WW  WW  A    A  R   R   N   NN  II  N   NN  G    G                |
|           W    W  A    A  R    R  N    N  II  N    N   GGGG   !!!           |
|                                                                             |
|      For optimal performance we recommend to set                            |
|        NCORE= 4 - approx SQRT( number of cores)                             |
|      NCORE specifies how many cores store one orbital (NPAR=cpu/NCORE).     |
|      This setting can  greatly improve the performance of VASP for DFT.     |
|      The default,   NCORE=1            might be grossly inefficient         |
|      on modern multi-core architectures or massively parallel machines.     |
|      Do your own testing !!!!                                               |
|      Unfortunately you need to use the default for GW and RPA calculations. |
|      (for HF NCORE is supported but not extensively tested yet)             |
|                                                                             |
 ----------------------------------------------------------------------------- 

 POTCAR:    PAW_PBE H 15Jun2001                   
  local pseudopotential read in
  atomic valenz-charges read in
  non local Contribution for L=           0  read in
    real space projection operators read in
  non local Contribution for L=           0  read in
    real space projection operators read in
  non local Contribution for L=           1  read in
    real space projection operators read in
    PAW grid and wavefunctions read in
 
   number of l-projection  operators is LMAX  =           3
   number of lm-projection operators is LMMAX =           5
 
 POTCAR:    PAW_PBE O 08Apr2002                   
  local pseudopotential read in
  partial core-charges read in
  partial kinetic energy density read in
  kinetic energy density of atom read in
  atomic valenz-charges read in
  non local Contribution for L=           0  read in
    real space projection operators read in
  non local Contribution for L=           0  read in
    real space projection operators read in
  non local Contribution for L=           1  read in
    real space projection operators read in
  non local Contribution for L=           1  read in
    real space projection operators read in
    PAW grid and wavefunctions read in
 
   number of l-projection  operators is LMAX  =           4
   number of lm-projection operators is LMMAX =           8
 
 Optimization of the real space projectors (new method)

 maximal supplied QI-value         = 34.20
 optimisation between [QCUT,QGAM] = [  9.92, 20.18] = [ 27.55,114.04] Ry 
 Optimized for a Real-space Cutoff    1.26 Angstroem

   l    n(q)    QCUT    max X(q) W(low)/X(q) W(high)/X(q)  e(spline) 
   0      8     9.919    19.460    0.50E-03    0.23E-03    0.29E-06
   0      8     9.919    12.209    0.48E-03    0.23E-03    0.28E-06
   1      7     9.919     4.655    0.17E-03    0.75E-03    0.30E-06
 Optimization of the real space projectors (new method)

 maximal supplied QI-value         = 24.76
 optimisation between [QCUT,QGAM] = [ 10.15, 20.30] = [ 28.85,115.39] Ry 
 Optimized for a Real-space Cutoff    1.38 Angstroem

   l    n(q)    QCUT    max X(q) W(low)/X(q) W(high)/X(q)  e(spline) 
   0      8    10.150    20.381    0.22E-03    0.32E-03    0.29E-06
   0      8    10.150    15.268    0.23E-03    0.35E-03    0.30E-06
   1      8    10.150     5.964    0.46E-03    0.53E-03    0.21E-06
   1      8    10.150     5.382    0.38E-03    0.45E-03    0.19E-06
  PAW_PBE H 15Jun2001                   :
 energy of atom  1       EATOM=  -12.4884
 kinetic energy error for atom=    0.0098 (will be added to EATOM!!)
  PAW_PBE O 08Apr2002                   :
 energy of atom  2       EATOM= -432.3788
 kinetic energy error for atom=    0.1156 (will be added to EATOM!!)
 
 
 POSCAR: bilayer_2                               
  positions in direct lattice
  velocities in cartesian coordinates
 exchange correlation table for  LEXCH =        8
   RHO(1)=    0.500       N(1)  =     2000
   RHO(2)=  100.500       N(2)  =     4000
 


--------------------------------------------------------------------------------------------------------


 ion  position               nearest neighbor table
   1  0.169  0.063  0.290-  98 1.00
   2  0.394  0.331  0.290- 100 1.00
   3  0.106  0.169  0.209- 106 1.00
   4  0.063  0.394  0.209- 108 1.00
   5  0.169  0.106  0.209- 106 1.00
   6  0.394  0.063  0.209- 104 1.00
   7  0.063  0.169  0.290- 102 1.00
   8  0.331  0.394  0.290- 100 1.00
   9  0.176  0.000  0.176-  97 0.97
  10  0.239  0.000  0.204-  97 1.07 104 1.41
  11  0.324  0.324  0.176-  99 0.97
  12  0.261  0.261  0.204-  99 1.07 106 1.41
  13  0.000  0.176  0.176- 101 0.97
  14  0.000  0.239  0.204- 101 1.07 108 1.41
  15  0.323  0.000  0.257- 103 0.97
  16  0.261  0.000  0.285- 103 1.07  98 1.41
  17  0.177  0.177  0.257- 105 0.97
  18  0.239  0.239  0.285- 105 1.07 100 1.41
  19  1.000  0.323  0.257- 107 0.97
  20  0.000  0.261  0.285- 107 1.07 102 1.41
  21  0.669  0.063  0.290- 110 1.00
  22  0.894  0.331  0.290- 112 1.00
  23  0.437  0.106  0.290- 114 1.00
  24  0.606  0.169  0.209- 118 1.00
  25  0.563  0.394  0.209- 120 1.00
  26  0.437  0.331  0.209- 120 1.00
  27  0.669  0.106  0.209- 118 1.00
  28  0.894  0.063  0.209- 116 1.00
  29  0.563  0.169  0.290- 114 1.00
  30  0.831  0.394  0.290- 112 1.00
  31  0.676  0.000  0.176- 109 0.97
  32  0.739  0.000  0.204- 109 1.07 116 1.41
  33  0.824  0.324  0.176- 111 0.97
  34  0.761  0.261  0.204- 111 1.07 118 1.41
  35  0.500  0.176  0.176- 113 0.97
  36  0.500  0.239  0.204- 113 1.07 120 1.41
  37  0.823  0.000  0.257- 115 0.97
  38  0.761  0.000  0.285- 115 1.07 110 1.41
  39  0.677  0.177  0.257- 117 0.97
  40  0.739  0.239  0.285- 117 1.07 112 1.41
  41  0.500  0.323  0.257- 119 0.97
  42  0.500  0.261  0.285- 119 1.07 114 1.41
  43  0.169  0.563  0.290- 122 1.00
  44  0.394  0.831  0.290- 124 1.00
  45  0.331  0.437  0.209- 128 1.00
  46  0.106  0.669  0.209- 130 1.00
  47  0.063  0.894  0.209- 132 1.00
  48  0.169  0.606  0.209- 130 1.00
  49  0.394  0.563  0.209- 128 1.00
  50  0.063  0.669  0.290- 126 1.00
  51  0.331  0.894  0.290- 124 1.00
  52  0.106  0.437  0.290- 122 1.00
  53  0.176  0.500  0.176- 121 0.97
  54  0.239  0.500  0.204- 121 1.07 128 1.41
  55  0.324  0.824  0.176- 123 0.97
  56  0.261  0.761  0.204- 123 1.07 130 1.41
  57  0.000  0.676  0.176- 125 0.97
  58  0.000  0.739  0.204- 125 1.07 132 1.41
  59  0.323  0.500  0.257- 127 0.97
  60  0.261  0.500  0.285- 127 1.07 122 1.41
  61  0.177  0.677  0.257- 129 0.97
  62  0.239  0.739  0.285- 129 1.07 124 1.41
  63  0.000  0.823  0.257- 131 0.97
  64  0.000  0.761  0.285- 131 1.07 126 1.41
  65  0.669  0.563  0.290- 134 1.00
  66  0.894  0.831  0.290- 136 1.00
  67  0.437  0.606  0.290- 138 1.00
  68  0.831  0.437  0.209- 140 1.00
  69  0.606  0.669  0.209- 142 1.00
  70  0.563  0.894  0.209- 144 1.00
  71  0.437  0.831  0.209- 144 1.00
  72  0.669  0.606  0.209- 142 1.00
  73  0.894  0.563  0.209- 140 1.00
  74  0.563  0.669  0.290- 138 1.00
  75  0.831  0.894  0.290- 136 1.00
  76  0.606  0.437  0.290- 134 1.00
  77  0.676  0.500  0.176- 133 0.97
  78  0.739  0.500  0.204- 133 1.07 140 1.41
  79  0.824  0.824  0.176- 135 0.97
  80  0.761  0.761  0.204- 135 1.07 142 1.41
  81  0.500  0.676  0.176- 137 0.97
  82  0.500  0.739  0.204- 137 1.07 144 1.41
  83  0.823  0.500  0.257- 139 0.97
  84  0.761  0.500  0.285- 139 1.07 134 1.41
  85  0.677  0.677  0.257- 141 0.97
  86  0.739  0.739  0.285- 141 1.07 136 1.41
  87  0.500  0.823  0.257- 143 0.97
  88  0.500  0.761  0.285- 143 1.07 138 1.41
  89  0.937  0.106  0.290- 102 1.00
  90  0.937  0.331  0.209- 108 1.00
  91  0.937  0.606  0.290- 126 1.00
  92  0.937  0.831  0.209- 132 1.00
  93  0.331  0.937  0.209- 104 1.00
  94  0.106  0.937  0.290-  98 1.00
  95  0.831  0.937  0.209- 116 1.00
  96  0.606  0.937  0.290- 110 1.00
  97  0.171  0.000  0.196-   9 0.97  10 1.07
  98  0.173  0.000  0.296-  94 1.00   1 1.00  16 1.41
  99  0.329  0.329  0.196-  11 0.97  12 1.07
 100  0.327  0.327  0.296-   8 1.00   2 1.00  18 1.41
 101  0.000  0.171  0.196-  13 0.97  14 1.07
 102  0.000  0.173  0.296-   7 1.00  89 1.00  20 1.41
 103  0.329  0.000  0.277-  15 0.97  16 1.07
 104  0.327  0.000  0.215-   6 1.00  93 1.00  10 1.41
 105  0.171  0.171  0.277-  17 0.97  18 1.07
 106  0.173  0.173  0.215-   5 1.00   3 1.00  12 1.41
 107  1.000  0.329  0.277-  19 0.97  20 1.07
 108  0.000  0.327  0.215-   4 1.00  90 1.00  14 1.41
 109  0.671  0.000  0.196-  31 0.97  32 1.07
 110  0.673  0.000  0.296-  96 1.00  21 1.00  38 1.41
 111  0.829  0.329  0.196-  33 0.97  34 1.07
 112  0.827  0.327  0.296-  30 1.00  22 1.00  40 1.41
 113  0.500  0.171  0.196-  35 0.97  36 1.07
 114  0.500  0.173  0.296-  29 1.00  23 1.00  42 1.41
 115  0.829  0.000  0.277-  37 0.97  38 1.07
 116  0.827  0.000  0.215-  95 1.00  28 1.00  32 1.41
 117  0.671  0.171  0.277-  39 0.97  40 1.07
 118  0.673  0.173  0.215-  27 1.00  24 1.00  34 1.41
 119  0.500  0.329  0.277-  41 0.97  42 1.07
 120  0.500  0.327  0.215-  25 1.00  26 1.00  36 1.41
 121  0.171  0.500  0.196-  53 0.97  54 1.07
 122  0.173  0.500  0.296-  43 1.00  52 1.00  60 1.41
 123  0.329  0.829  0.196-  55 0.97  56 1.07
 124  0.327  0.827  0.296-  44 1.00  51 1.00  62 1.41
 125  0.000  0.671  0.196-  57 0.97  58 1.07
 126  1.000  0.673  0.296-  91 1.00  50 1.00  64 1.41
 127  0.329  0.500  0.277-  59 0.97  60 1.07
 128  0.327  0.500  0.215-  49 1.00  45 1.00  54 1.41
 129  0.171  0.671  0.277-  61 0.97  62 1.07
 130  0.173  0.673  0.215-  46 1.00  48 1.00  56 1.41
 131  0.000  0.829  0.277-  63 0.97  64 1.07
 132  1.000  0.827  0.215-  92 1.00  47 1.00  58 1.41
 133  0.671  0.500  0.196-  77 0.97  78 1.07
 134  0.673  0.500  0.296-  65 1.00  76 1.00  84 1.41
 135  0.829  0.829  0.196-  79 0.97  80 1.07
 136  0.827  0.827  0.296-  66 1.00  75 1.00  86 1.41
 137  0.500  0.671  0.196-  81 0.97  82 1.07
 138  0.500  0.673  0.296-  67 1.00  74 1.00  88 1.41
 139  0.829  0.500  0.277-  83 0.97  84 1.07
 140  0.827  0.500  0.215-  68 1.00  73 1.00  78 1.41
 141  0.671  0.671  0.277-  85 0.97  86 1.07
 142  0.673  0.673  0.215-  72 1.00  69 1.00  80 1.41
 143  0.500  0.829  0.277-  87 0.97  88 1.07
 144  0.500  0.827  0.215-  71 1.00  70 1.00  82 1.41
 
  LATTYP: Found a hexagonal cell.
 ALAT       =    14.6976995468
 C/A-ratio  =     3.3474899354
  
  Lattice vectors:
  
 A1 = (  14.6976995468,   0.0000000000,   0.0000000000)
 A2 = (  -7.3488497734,  12.7285811847,   0.0000000000)
 A3 = (   0.0000000000,   0.0000000000,  49.2004013062)


Analysis of symmetry for initial positions (statically):
=====================================================================
 Subroutine PRICEL returns following result:
 
  LATTYP: Found a hexagonal cell.
 ALAT       =     7.3488496779
 C/A-ratio  =     6.6949799578
  
  Lattice vectors:
  
 A1 = (   7.3488499939,   0.0000000000,   0.0000000000)
 A2 = (  -3.6744246809,   6.3642902359,   0.0000000000)
 A3 = (   0.0000000000,   0.0000000000,  49.2004013062)
 
   4 primitive cells build up your supercell.
 

 Routine SETGRP: Setting up the symmetry group for a 
 hexagonal supercell.


 Subroutine GETGRP returns: Found  6 space group operations
 (whereof  6 operations were pure point group operations)
 out of a pool of 24 trial point group operations.


The static configuration has the point symmetry C_3v.


Analysis of symmetry for dynamics (positions and initial velocities):
=====================================================================
 Subroutine PRICEL returns following result:
 
  LATTYP: Found a hexagonal cell.
 ALAT       =     7.3488496779
 C/A-ratio  =     6.6949799578
  
  Lattice vectors:
  
 A1 = (   7.3488499939,   0.0000000000,   0.0000000000)
 A2 = (  -3.6744246809,   6.3642902359,   0.0000000000)
 A3 = (   0.0000000000,   0.0000000000,  49.2004013062)
 
   4 primitive cells build up your supercell.
 

 Routine SETGRP: Setting up the symmetry group for a 
 hexagonal supercell.


 Subroutine GETGRP returns: Found  6 space group operations
 (whereof  6 operations were pure point group operations)
 out of a pool of 24 trial point group operations.


The dynamic configuration has the point symmetry C_3v.


Analysis of constrained symmetry for selective dynamics:
=====================================================================
 Subroutine PRICEL returns following result:
 
  LATTYP: Found a hexagonal cell.
 ALAT       =     7.3488496779
 C/A-ratio  =     6.6949799578
  
  Lattice vectors:
  
 A1 = (   7.3488499939,   0.0000000000,   0.0000000000)
 A2 = (  -3.6744246809,   6.3642902359,   0.0000000000)
 A3 = (   0.0000000000,   0.0000000000,  49.2004013062)
 
   4 primitive cells build up your supercell.
 

 Routine SETGRP: Setting up the symmetry group for a 
 hexagonal supercell.


 Subroutine GETGRP returns: Found  6 space group operations
 (whereof  6 operations were pure point group operations)
 out of a pool of 24 trial point group operations.


The constrained configuration has the point symmetry C_3v.


 Subroutine INISYM returns: Found  6 space group operations
 (whereof  6 operations are pure point group operations),
 and found     4 'primitive' translations

 
 
 KPOINTS: automatic mesh                          

Automatic generation of k-mesh.
Space group operators:
 irot       det(A)        alpha          n_x          n_y          n_z        tau_x        tau_y        tau_z
    1     1.000000     0.000000     1.000000     0.000000     0.000000     0.000000     0.000000     0.000000
    2     1.000000   120.000000     0.000000     0.000000    -1.000000     0.000000     0.000000     0.000000
    3     1.000000   120.000000     0.000000     0.000000     1.000000     0.000000     0.000000     0.000000
    4    -1.000000   180.000000     0.866025    -0.500000     0.000000     0.000000     0.000000     0.000000
    5    -1.000000   180.000000     0.000000     1.000000     0.000000     0.000000     0.000000     0.000000
    6    -1.000000   180.000000     0.866025     0.500000     0.000000     0.000000     0.000000     0.000000
 
 Subroutine IBZKPT returns following result:
 ===========================================
 
 Found      1 irreducible k-points:
 
 Following reciprocal coordinates:
            Coordinates               Weight
  0.000000  0.000000  0.000000      1.000000
 
 Following cartesian coordinates:
            Coordinates               Weight
  0.000000  0.000000  0.000000      1.000000
 


--------------------------------------------------------------------------------------------------------




 Dimension of arrays:
   k-points           NKPTS =      1   k-points in BZ     NKDIM =      1   number of bands    NBANDS=    266
   number of dos      NEDOS =    301   number of ions     NIONS =    144
   non local maximal  LDIM  =      4   non local SUM 2l+1 LMDIM =      8
   total plane-waves  NPLWV = ******
   max r-space proj   IRMAX =   1601   max aug-charges    IRDMAX=   2026
   dimension x,y,z NGX =    72 NGY =   72 NGZ =  250
   dimension x,y,z NGXF=   144 NGYF=  144 NGZF=  500
   support grid    NGXF=   144 NGYF=  144 NGZF=  500
   ions per type =              96  48
   NGX,Y,Z   is equivalent  to a cutoff of   8.14,  8.14,  8.45 a.u.
   NGXF,Y,Z  is equivalent  to a cutoff of  16.29, 16.29, 16.89 a.u.

 SYSTEM =  ice                                     
 POSCAR =  bilayer_2                               

 Startparameter for this run:
   NWRITE =      0    write-flag & timer
   PREC   = normal    normal or accurate (medium, high low for compatibility)
   ISTART =      0    job   : 0-new  1-cont  2-samecut
   ICHARG =      1    charge: 1-file 2-atom 10-const
   ISPIN  =      1    spin polarized calculation?
   LNONCOLLINEAR =      F non collinear calculations
   LSORBIT =      F    spin-orbit coupling
   INIWAV =      1    electr: 0-lowe 1-rand  2-diag
   LASPH  =      F    aspherical Exc in radial PAW
   METAGGA=      F    non-selfconsistent MetaGGA calc.

 Electronic Relaxation 1
   ENCUT  =  400.0 eV  29.40 Ry    5.42 a.u.  23.97 23.97 80.23*2*pi/ulx,y,z
   ENINI  =  400.0     initial cutoff
   ENAUG  =  605.4 eV  augmentation charge cutoff
   NELM   =    500;   NELMIN=  4; NELMDL=  0     # of ELM steps 
   EDIFF  = 0.1E-05   stopping-criterion for ELM
   LREAL  =      T    real-space projection
   NLSPLINE    = F    spline interpolate recip. space projectors
   LCOMPAT=      F    compatible to vasp.4.4
   GGA_COMPAT  = T    GGA compatible to vasp.4.4-vasp.4.6
   LMAXPAW     = -100 max onsite density
   LMAXMIX     =    2 max onsite mixed and CHGCAR
   VOSKOWN=      0    Vosko Wilk Nusair interpolation
   ROPT   =   -0.00050  -0.00050
 Ionic relaxation
   EDIFFG = 0.1E-04   stopping-criterion for IOM
   NSW    =      0    number of steps for IOM
   NBLOCK =      1;   KBLOCK =      1    inner block; outer block 
   IBRION =     -1    ionic relax: 0-MD 1-quasi-New 2-CG
   NFREE  =      0    steps in history (QN), initial steepest desc. (CG)
   ISIF   =      2    stress and relaxation
   IWAVPR =     10    prediction:  0-non 1-charg 2-wave 3-comb
   ISYM   =      2    0-nonsym 1-usesym 2-fastsym
   LCORR  =      T    Harris-Foulkes like correction to forces

   POTIM  = 0.5000    time-step for ionic-motion
   TEIN   =    0.0    initial temperature
   TEBEG  =    0.0;   TEEND  =   0.0 temperature during run
   SMASS  =  -3.00    Nose mass-parameter (am)
   estimated Nose-frequenzy (Omega)   =  0.10E-29 period in steps =****** mass=  -0.494E-26a.u.
   SCALEE = 1.0000    scale energy and forces
   NPACO  =    256;   APACO  = 16.0  distance and # of slots for P.C.
   PSTRESS=    0.0 pullay stress

  Mass of Ions in am
   POMASS =   1.00 16.00
  Ionic Valenz
   ZVAL   =   1.00  6.00
  Atomic Wigner-Seitz radii
   RWIGS  =  -1.00 -1.00
  virtual crystal weights 
   VCA    =   1.00  1.00
   NELECT =     384.0000    total number of electrons
   NUPDOWN=      -1.0000    fix difference up-down

 DOS related values:
   EMIN   =  10.00;   EMAX   =-10.00  energy-range for DOS
   EFERMI =   0.00
   ISMEAR =    -1;   SIGMA  =   0.05  broadening in eV -4-tet -1-fermi 0-gaus

 Electronic relaxation 2 (details)
   IALGO  =     68    algorithm
   LDIAG  =      T    sub-space diagonalisation (order eigenvalues)
   LSUBROT=      F    optimize rotation matrix (better conditioning)
   TURBO    =      0    0=normal 1=particle mesh
   IRESTART =      0    0=no restart 2=restart with 2 vectors
   NREBOOT  =      0    no. of reboots
   NMIN     =      0    reboot dimension
   EREF     =   0.00    reference energy to select bands
   IMIX   =      4    mixing-type and parameters
     AMIX     =   0.40;   BMIX     =  1.00
     AMIX_MAG =   1.60;   BMIX_MAG =  1.00
     AMIN     =   0.10
     WC   =   100.;   INIMIX=   1;  MIXPRE=   1;  MAXMIX=  40

 Intra band minimization:
   WEIMIN = 0.0000     energy-eigenvalue tresh-hold
   EBREAK =  0.94E-09  absolut break condition
   DEPER  =   0.30     relativ break condition  

   TIME   =   0.40     timestep for ELM

  volume/ion in A,a.u.               =      63.92       431.35
  Fermi-wavevector in a.u.,A,eV,Ry     =   0.567788  1.072963  4.386284  0.322383
  Thomas-Fermi vector in A             =   1.606745
 
 Write flags
   LWAVE        =      F    write WAVECAR
   LDOWNSAMPLE  =      F    k-point downsampling of WAVECAR
   LCHARG       =      T    write CHGCAR
   LVTOT        =      F    write LOCPOT, total local potential
   LVHAR        =      T    write LOCPOT, Hartree potential only
   LELF         =      F    write electronic localiz. function (ELF)
   LORBIT       =     11    0 simple, 1 ext, 2 COOP (PROOUT), +10 PAW based schemes


 Dipole corrections
   LMONO  =      F    monopole corrections only (constant potential shift)
   LDIPOL =      T    correct potential (dipole corrections)
   IDIPOL =      3    1-x, 2-y, 3-z, 4-all directions 
   EPSILON=  1.0000000 bulk dielectric constant

 Exchange correlation treatment:
   GGA     =    --    GGA type
   LEXCH   =     8    internal setting for exchange type
   VOSKOWN=      0    Vosko Wilk Nusair interpolation
   LHFCALC =     F    Hartree Fock is set to
   LHFONE  =     F    Hartree Fock one center treatment
   AEXX    =    0.0000 exact exchange contribution

 Linear response parameters
   LEPSILON=     F    determine dielectric tensor
   LRPA    =     F    only Hartree local field effects (RPA)
   LNABLA  =     F    use nabla operator in PAW spheres
   LVEL    =     F    velocity operator in full k-point grid
   LINTERFAST=   F  fast interpolation
   KINTER  =     0    interpolate to denser k-point grid
   CSHIFT  =0.1000    complex shift for real part using Kramers Kronig
   OMEGAMAX=  -1.0    maximum frequency
   DEG_THRESHOLD= 0.2000000E-02 threshold for treating states as degnerate
   RTIME   =   -0.100 relaxation time in fs
  (WPLASMAI=    0.000 imaginary part of plasma frequency in eV, 0.658/RTIME)
   DFIELD  = 0.0000000 0.0000000 0.0000000 field for delta impulse in time
 
 Orbital magnetization related:
   ORBITALMAG=     F  switch on orbital magnetization
   LCHIMAG   =     F  perturbation theory with respect to B field
   DQ        =  0.001000  dq finite difference perturbation B field
   LLRAUG    =     F  two centre corrections for induced B field



--------------------------------------------------------------------------------------------------------


 Static calculation
 charge density and potential will be updated during run
 non-spin polarized calculation
 RMM-DIIS sequential band-by-band and
  variant of blocked Davidson during initial phase
 perform sub-space diagonalisation
    before iterative eigenvector-optimisation
 modified Broyden-mixing scheme, WC =      100.0
 initial mixing is a Kerker type mixing with AMIX =  0.4000 and BMIX =      1.0000
 Hartree-type preconditioning will be used
 using additional bands           74
 real space projection scheme for non local part
 use partial core corrections
 calculate Harris-corrections to forces 
   (improved forces if not selfconsistent)
 use gradient corrections 
 use of overlap-Matrix (Vanderbilt PP)
 Fermi-smearing in eV        SIGMA  =   0.05


--------------------------------------------------------------------------------------------------------


  energy-cutoff  :      400.00
  volume of cell :     9204.45
      direct lattice vectors                 reciprocal lattice vectors
    14.697699547  0.000000000  0.000000000     0.068037858  0.039281676  0.000000000
    -7.348849773 12.728581185  0.000000000     0.000000000  0.078563352  0.000000000
     0.000000000  0.000000000 49.200401306     0.000000000  0.000000000  0.020325037

  length of vectors
    14.697699547 14.697699547 49.200401306     0.078563352  0.078563352  0.020325037


 
 k-points in units of 2pi/SCALE and weight: automatic mesh                          
   0.00000000  0.00000000  0.00000000       1.000
 
 k-points in reciprocal lattice and weights: automatic mesh                          
   0.00000000  0.00000000  0.00000000       1.000
 
 position of ions in fractional coordinates (direct lattice) 
   0.16907628  0.06303592  0.29046578
   0.39395965  0.33092374  0.29046578
   0.10594536  0.16912144  0.20888775
   0.06317609  0.39405465  0.20888775
   0.16912143  0.10594536  0.20888775
   0.39405464  0.06317609  0.20888775
   0.06303593  0.16907629  0.29046578
   0.33092373  0.39395964  0.29046578
   0.17643590  0.00000000  0.17602372
   0.23863770  0.00000000  0.20367005
   0.32356408  0.32356408  0.17602372
   0.26136230  0.26136230  0.20367005
   0.00000000  0.17643591  0.17602372
   0.00000000  0.23863771  0.20367005
   0.32301231  0.00000000  0.25745528
   0.26125146  0.00000000  0.28526542
   0.17698768  0.17698769  0.25745528
   0.23874854  0.23874855  0.28526542
   1.00000000  0.32301230  0.25745528
   0.00000000  0.26125146  0.28526542
   0.66907626  0.06303592  0.29046578
   0.89395965  0.33092374  0.29046578
   0.43696409  0.10604037  0.29046578
   0.60594531  0.16912144  0.20888775
   0.56317606  0.39405465  0.20888775
   0.43682393  0.33087858  0.20888775
   0.66912143  0.10594536  0.20888775
   0.89405464  0.06317609  0.20888775
   0.56303591  0.16907629  0.29046578
   0.83092368  0.39395964  0.29046578
   0.67643588  0.00000000  0.17602372
   0.73863773  0.00000000  0.20367005
   0.82356407  0.32356408  0.17602372
   0.76136229  0.26136230  0.20367005
   0.50000000  0.17643591  0.17602372
   0.50000000  0.23863771  0.20367005
   0.82301231  0.00000000  0.25745528
   0.76125146  0.00000000  0.28526542
   0.67698766  0.17698769  0.25745528
   0.73874858  0.23874855  0.28526542
   0.50000001  0.32301230  0.25745528
   0.50000002  0.26125146  0.28526542
   0.16907629  0.56303595  0.29046578
   0.39395967  0.83092375  0.29046578
   0.33087856  0.43682390  0.20888775
   0.10594537  0.66912147  0.20888775
   0.06317610  0.89405470  0.20888775
   0.16912145  0.60594537  0.20888775
   0.39405467  0.56317611  0.20888775
   0.06303594  0.66907632  0.29046578
   0.33092375  0.89395969  0.29046578
   0.10604035  0.43696407  0.29046578
   0.17643590  0.50000001  0.17602372
   0.23863770  0.50000001  0.20367005
   0.32356411  0.82356413  0.17602372
   0.26136231  0.76136231  0.20367005
   0.00000003  0.67643594  0.17602372
   0.00000001  0.73863775  0.20367005
   0.32301231  0.50000001  0.25745528
   0.26125146  0.50000001  0.28526542
   0.17698770  0.67698772  0.25745528
   0.23874855  0.73874859  0.28526542
   0.00000002  0.82301235  0.25745528
   0.00000001  0.76125147  0.28526542
   0.66907629  0.56303595  0.29046578
   0.89395967  0.83092375  0.29046578
   0.43696411  0.60604038  0.29046578
   0.83087853  0.43682390  0.20888775
   0.60594534  0.66912147  0.20888775
   0.56317610  0.89405470  0.20888775
   0.43682395  0.83087859  0.20888775
   0.66912145  0.60594537  0.20888775
   0.89405470  0.56317611  0.20888775
   0.56303594  0.66907632  0.29046578
   0.83092372  0.89395969  0.29046578
   0.60604032  0.43696407  0.29046578
   0.67643587  0.50000001  0.17602372
   0.73863772  0.50000001  0.20367005
   0.82356411  0.82356413  0.17602372
   0.76136231  0.76136231  0.20367005
   0.50000003  0.67643594  0.17602372
   0.50000001  0.73863775  0.20367005
   0.82301230  0.50000001  0.25745528
   0.76125145  0.50000001  0.28526542
   0.67698769  0.67698772  0.25745528
   0.73874858  0.73874859  0.28526542
   0.50000002  0.82301235  0.25745528
   0.50000001  0.76125147  0.28526542
   0.93696406  0.10604037  0.29046578
   0.93682390  0.33087858  0.20888775
   0.93696411  0.60604038  0.29046578
   0.93682392  0.83087859  0.20888775
   0.33087858  0.93682391  0.20888775
   0.10604037  0.93696408  0.29046578
   0.83087855  0.93682391  0.20888775
   0.60604034  0.93696408  0.29046578
   0.17071483  0.00000000  0.19567633
   0.17260773  0.00000000  0.29639023
   0.32928516  0.32928515  0.19567633
   0.32739226  0.32739226  0.29639023
   0.00000000  0.17071484  0.19567633
   0.00000000  0.17260773  0.29639023
   0.32887011  0.00000000  0.27714552
   0.32709928  0.00000000  0.21458633
   0.17112989  0.17112989  0.27714552
   0.17290071  0.17290071  0.21458633
   0.99999999  0.32887010  0.27714552
   0.00000000  0.32709929  0.21458633
   0.67071483  0.00000000  0.19567633
   0.67260778  0.00000000  0.29639023
   0.82928513  0.32928515  0.19567633
   0.82739224  0.32739226  0.29639023
   0.50000002  0.17071484  0.19567633
   0.49999999  0.17260773  0.29639023
   0.82887008  0.00000000  0.27714552
   0.82709928  0.00000000  0.21458633
   0.67112988  0.17112989  0.27714552
   0.67290075  0.17290071  0.21458633
   0.49999999  0.32887010  0.27714552
   0.50000002  0.32709929  0.21458633
   0.17071484  0.50000001  0.19567633
   0.17260773  0.50000001  0.29639023
   0.32928520  0.82928520  0.19567633
   0.32739224  0.82739223  0.29639023
   0.00000001  0.67071487  0.19567633
   0.99999999  0.67260776  0.29639023
   0.32887011  0.50000001  0.27714552
   0.32709928  0.50000001  0.21458633
   0.17112991  0.67112992  0.27714552
   0.17290070  0.67290073  0.21458633
   0.00000003  0.82887014  0.27714552
   0.99999999  0.82709926  0.21458633
   0.67071482  0.50000001  0.19567633
   0.67260777  0.50000001  0.29639023
   0.82928517  0.82928520  0.19567633
   0.82739224  0.82739223  0.29639023
   0.50000001  0.67071487  0.19567633
   0.49999999  0.67260776  0.29639023
   0.82887007  0.50000001  0.27714552
   0.82709927  0.50000001  0.21458633
   0.67112991  0.67112992  0.27714552
   0.67290074  0.67290073  0.21458633
   0.50000003  0.82887014  0.27714552
   0.49999999  0.82709926  0.21458633
 
 position of ions in cartesian coordinates  (Angst):
   2.02179083  0.80235787 14.29103300
   3.35839166  4.21218967 14.29103300
   0.31430496  2.15267603 10.27736135
  -1.96730529  5.01575663 10.27736135
   1.70711948  1.34853409 10.27736135
   5.32742508  0.80414195 10.27736135
  -0.31603310  2.15210129 14.29103300
   1.96866727  5.01454729 14.29103300
   2.59320183  0.00000000  8.66043765
   3.50742519  0.00000000 10.02064798
   2.37782385  4.11851169  8.66043765
   1.92071228  3.32677131 10.02064798
  -1.29660092  2.24577879  8.66043765
  -1.75371260  3.03751941 10.02064798
   4.74753784  0.00000000 12.66690324
   3.83979546  0.00000000 14.03517295
   1.30065584  2.25280213 12.66690324
   1.75452716  3.03893026 14.03517295
  12.32393063  4.11148835 12.66690324
  -1.91989773  3.32536046 14.03517295
   9.37064037  0.80235787 14.29103300
  10.70724144  4.21218967 14.29103300
   5.64309216  1.34974343 14.29103300
   7.66315402  2.15267603 10.27736135
   5.38154413  5.01575663 10.27736135
   3.98872986  4.21161493 10.27736135
   9.05596925  1.34853409 10.27736135
  12.67627485  0.80414195 10.27736135
   7.03281631  2.15210129 14.29103300
   9.31751633  5.01454729 14.29103300
   9.94205137  0.00000000  8.66043765
  10.85627545  0.00000000 10.02064798
   9.72667338  4.11851169  8.66043765
   9.26956182  3.32677131 10.02064798
   6.05224874  2.24577879  8.66043765
   5.59513717  3.03751941 10.02064798
  12.09638761  0.00000000 12.66690324
  11.18864524  0.00000000 14.03517295
   8.64950526  2.25280213 12.66690324
   9.10337741  3.03893026 14.03517295
   4.97508109  4.11148835 12.66690324
   5.42895228  3.32536046 14.03517295
  -1.65263406  7.16664881 14.29103300
  -0.31603298 10.57648038 14.29103300
   1.65300044  5.56014853 10.27736135
  -3.36011992  8.51696698 10.27736135
  -5.64173030 11.38004782 10.27736135
  -1.96730517  7.71282479 10.27736135
   1.65300044  7.16843289 10.27736135
  -3.99045810  8.51639224 14.29103300
  -1.70575762 11.37883848 14.29103300
  -1.65263405  5.56193261 14.29103300
  -1.08122306  6.36429072  8.66043765
  -0.16699969  6.36429072 10.02064798
  -1.29660103 10.48280288  8.66043765
  -1.75371260  9.69106202 10.02064798
  -4.97102569  8.61006975  8.66043765
  -5.42813772  9.40181060 10.02064798
   1.07311295  6.36429072 12.66690324
   0.16537058  6.36429072 14.03517295
  -2.37376892  8.61709309 12.66690324
  -1.91989797  9.40322145 14.03517295
  -6.04819381 10.47577954 12.66690324
  -5.59432262  9.68965116 14.03517295
   5.69621572  7.16664881 14.29103300
   7.03281679 10.57648038 14.29103300
   1.96866752  7.71403413 14.29103300
   9.00184974  5.56014853 10.27736135
   3.98872938  8.51696698 10.27736135
   1.70711947 11.38004782 10.27736135
   0.31430521 10.57590564 10.27736135
   5.38154461  7.71282479 10.27736135
   9.00185069  7.16843289 10.27736135
   3.35839167  8.51639224 14.29103300
   5.64309168 11.37883848 14.29103300
   5.69621524  5.56193261 14.29103300
   6.26762625  6.36429072  8.66043765
   7.18185031  6.36429072 10.02064798
   6.05224874 10.48280288  8.66043765
   5.59513718  9.69106202 10.02064798
   2.37782408  8.61006975  8.66043765
   1.92071206  9.40181060 10.02064798
   8.42196249  6.36429072 12.66690324
   7.51422010  6.36429072 14.03517295
   4.97508060  8.61709309 12.66690324
   5.42895228  9.40322145 14.03517295
   1.30065596 10.47577954 12.66690324
   1.75452715  9.68965116 14.03517295
  12.99194145  1.34974343 14.29103300
  11.33757915  4.21161493 10.27736135
   9.31751729  7.71403413 14.29103300
   7.66315450 10.57590564 10.27736135
  -2.02142421 11.92443925 10.27736135
  -5.32705870 11.92622333 14.29103300
   5.32742509 11.92443925 10.27736135
   2.02179059 11.92622333 14.29103300
   2.50911534  0.00000000  9.62735416
   2.53693654  0.00000000 14.58251847
   2.41986721  4.19133281  9.62735416
   2.40595649  4.16723899 14.58251847
  -1.25455768  2.17295767  9.62735416
  -1.26846827  2.19705149 14.58251847
   4.83363405  0.00000000 13.63567080
   4.80760691  0.00000000 10.55773334
   1.25760785  2.17824075 13.63567080
   1.27062131  2.20078066 10.55773334
  12.28088252  4.18604973 13.63567080
  -2.40380345  4.16350981 10.55773334
   9.85796512  0.00000000  9.62735416
   9.88578703  0.00000000 14.58251847
   9.76871652  4.19133281  9.62735416
   9.75480603  4.16723899 14.58251847
   6.09429233  2.17295767  9.62735416
   6.08038139  2.19705149 14.58251847
  12.18248334  0.00000000 13.63567080
  12.15645668  0.00000000 10.55773334
   8.60645739  2.17824075 13.63567080
   8.61947168  2.20078066 10.55773334
   4.93203275  4.18604973 13.63567080
   4.94504656  4.16350981 10.55773334
  -1.16530954  6.36429072  9.62735416
  -1.13748835  6.36429072 14.58251847
  -1.25455743 10.55562400  9.62735416
  -1.26846839 10.53152922 14.58251847
  -4.92898257  8.53724862  9.62735416
   9.75480604  8.56134244 14.58251847
   1.15920915  6.36429072 13.63567080
   1.13318202  6.36429072 10.55773334
  -2.41681702  8.54253170 13.63567080
  -2.40380393  8.56507161 10.55773334
  -6.09124167 10.55034092 13.63567080
   8.61947121 10.52780005 10.55773334
   6.18354000  6.36429072  9.62735416
   6.21136191  6.36429072 14.58251847
   6.09429186 10.55562400  9.62735416
   6.08038138 10.53152922 14.58251847
   2.41986721  8.53724862  9.62735416
   2.40595626  8.56134244 14.58251847
   8.50805822  6.36429072 13.63567080
   8.48203156  6.36429072 10.55773334
   4.93203275  8.54253170 13.63567080
   4.94504656  8.56507161 10.55773334
   1.25760810 10.55034092 13.63567080
   1.27062143 10.52780005 10.55773334
 


--------------------------------------------------------------------------------------------------------


 use parallel FFT for orbitals z direction half grid
 k-point  1 :   0.0000 0.0000 0.0000  plane waves:   83586

 maximum and minimum number of plane-waves per node :      4185     4175

 maximum number of plane-waves:     83586
 maximum index in each direction: 
   IXMAX=   23   IYMAX=   23   IZMAX=   80
   IXMIN=  -23   IYMIN=  -23   IZMIN=    0


 real space projection operators:
  total allocation   :       8845.69 KBytes
  max/ min on nodes  :        502.28        367.97


 parallel 3D FFT for wavefunctions:
    minimum data exchange during FFTs selected (reduces bandwidth)
 parallel 3D FFT for charge:
    minimum data exchange during FFTs selected (reduces bandwidth)


 total amount of memory used by VASP MPI-rank0    69626. kBytes
=======================================================================

   base      :      30000. kBytes
   nonlr-proj:        617. kBytes
   fftplans  :      10983. kBytes
   grid      :      19058. kBytes
   one-center:         12. kBytes
   wavefun   :       8956. kBytes
 
     INWAV:  cpu time    0.0000: real time    0.0000
 Broyden mixing: mesh for mixing (old mesh)
   NGX = 47   NGY = 47   NGZ =161
  (NGX  =144   NGY  =144   NGZ  =500)
  gives a total of 355649 points

 initial charge density was supplied:
 number of electron     384.0000526 magnetization 
 keeping initial charge density in first step


--------------------------------------------------------------------------------------------------------


 Maximum index for non-local projection operator          149
 Maximum index for augmentation-charges          164 (set IRDMAX)


--------------------------------------------------------------------------------------------------------


 First call to EWALD:  gamma=   0.085
 Maximum number of real-space cells 4x 4x 1
 Maximum number of reciprocal cells 2x 2x 6

    FEWALD:  cpu time    0.0043: real time    0.0045


--------------------------------------- Iteration      1(   1)  ---------------------------------------


    POTLOK:  cpu time    0.2091: real time    0.2125
    SETDIJ:  cpu time    0.0048: real time    0.0050
     EDDAV:  cpu time    2.4125: real time    2.4388
       DOS:  cpu time    0.0003: real time    0.0003
    --------------------------------------------
      LOOP:  cpu time    2.6267: real time    2.6566

 eigenvalue-minimisations  :   620
 total energy-change (2. order) : 0.3034687E+04  (-0.1170907E+05)
 number of electron     384.0000526 magnetization 
 augmentation part      384.0000526 magnetization 

 DIPCOR: dipole corrections for dipol
 direction  3 min pos   374,
 dipolmoment           0.000000      0.000000      7.147315 electrons x Angstroem
 Tr[quadrupol]    -14350.451749

 energy correction for charged system         0.000000 eV
 dipol+quadrupol energy correction           -0.502108 eV
 added-field ion interaction          3.989223 eV  (added to PSCEN)


 Free energy of the ion-electron system (eV)
  ---------------------------------------------------
  alpha Z        PSCENC =        59.62026497
  Ewald energy   TEWEN  =    203536.58795998
  -Hartree energ DENC   =   -222720.19297630
  -exchange      EXHF   =         0.00000000
  -V(xc)+E(xc)   XCENC  =      1649.64337339
  PAW double counting   =     26945.41143558   -27046.27172716
  entropy T*S    EENTRO =        -0.35006714
  eigenvalues    EBANDS =     -1336.34302436
  atomic energy  EATOM  =     21946.58214554
  Solvation  Ediel_sol  =         0.00000000
  ---------------------------------------------------
  free energy    TOTEN  =      3034.68738451 eV

  energy without entropy =     3035.03745165  energy(sigma->0) =     3034.86241808


--------------------------------------------------------------------------------------------------------




--------------------------------------- Iteration      1(   2)  ---------------------------------------


     EDDAV:  cpu time    2.7566: real time    2.7852
       DOS:  cpu time    0.0002: real time    0.0002
    --------------------------------------------
      LOOP:  cpu time    2.7568: real time    2.7854

 eigenvalue-minimisations  :   736
 total energy-change (2. order) :-0.2483414E+04  (-0.2309722E+04)
 number of electron     384.0000526 magnetization 
 augmentation part      384.0000526 magnetization 

 DIPCOR: dipole corrections for dipol
 direction  3 min pos   374,
 dipolmoment           0.000000      0.000000      7.147315 electrons x Angstroem
 Tr[quadrupol]    -14350.451749

 energy correction for charged system         0.000000 eV
 dipol+quadrupol energy correction           -0.502108 eV
 added-field ion interaction          3.989223 eV  (added to PSCEN)


 Free energy of the ion-electron system (eV)
  ---------------------------------------------------
  alpha Z        PSCENC =        59.62026497
  Ewald energy   TEWEN  =    203536.58795998
  -Hartree energ DENC   =   -222720.19297630
  -exchange      EXHF   =         0.00000000
  -V(xc)+E(xc)   XCENC  =      1649.64337339
  PAW double counting   =     26945.41143558   -27046.27172716
  entropy T*S    EENTRO =        -0.36981785
  eigenvalues    EBANDS =     -3819.73753838
  atomic energy  EATOM  =     21946.58214554
  Solvation  Ediel_sol  =         0.00000000
  ---------------------------------------------------
  free energy    TOTEN  =       551.27311979 eV

  energy without entropy =      551.64293764  energy(sigma->0) =      551.45802871


--------------------------------------------------------------------------------------------------------




--------------------------------------- Iteration      1(   3)  ---------------------------------------


     EDDAV:  cpu time    2.8994: real time    2.9297
       DOS:  cpu time    0.0002: real time    0.0002
    --------------------------------------------
      LOOP:  cpu time    2.8996: real time    2.9299

 eigenvalue-minimisations  :   784
 total energy-change (2. order) :-0.1053833E+04  (-0.9787190E+03)
 number of electron     384.0000526 magnetization 
 augmentation part      384.0000526 magnetization 

 DIPCOR: dipole corrections for dipol
 direction  3 min pos   374,
 dipolmoment           0.000000      0.000000      7.147315 electrons x Angstroem
 Tr[quadrupol]    -14350.451749

 energy correction for charged system         0.000000 eV
 dipol+quadrupol energy correction           -0.502108 eV
 added-field ion interaction          3.989223 eV  (added to PSCEN)


 Free energy of the ion-electron system (eV)
  ---------------------------------------------------
  alpha Z        PSCENC =        59.62026497
  Ewald energy   TEWEN  =    203536.58795998
  -Hartree energ DENC   =   -222720.19297630
  -exchange      EXHF   =         0.00000000
  -V(xc)+E(xc)   XCENC  =      1649.64337339
  PAW double counting   =     26945.41143558   -27046.27172716
  entropy T*S    EENTRO =        -0.45258040
  eigenvalues    EBANDS =     -4873.48745191
  atomic energy  EATOM  =     21946.58214554
  Solvation  Ediel_sol  =         0.00000000
  ---------------------------------------------------
  free energy    TOTEN  =      -502.55955629 eV

  energy without entropy =     -502.10697589  energy(sigma->0) =     -502.33326609


--------------------------------------------------------------------------------------------------------




--------------------------------------- Iteration      1(   4)  ---------------------------------------


     EDDAV:  cpu time    2.6415: real time    2.6690
       DOS:  cpu time    0.0002: real time    0.0002
    --------------------------------------------
      LOOP:  cpu time    2.6417: real time    2.6692

 eigenvalue-minimisations  :   696
 total energy-change (2. order) :-0.1756894E+03  (-0.1445700E+03)
 number of electron     384.0000526 magnetization 
 augmentation part      384.0000526 magnetization 

 DIPCOR: dipole corrections for dipol
 direction  3 min pos   374,
 dipolmoment           0.000000      0.000000      7.147315 electrons x Angstroem
 Tr[quadrupol]    -14350.451749

 energy correction for charged system         0.000000 eV
 dipol+quadrupol energy correction           -0.502108 eV
 added-field ion interaction          3.989223 eV  (added to PSCEN)


 Free energy of the ion-electron system (eV)
  ---------------------------------------------------
  alpha Z        PSCENC =        59.62026497
  Ewald energy   TEWEN  =    203536.58795998
  -Hartree energ DENC   =   -222720.19297630
  -exchange      EXHF   =         0.00000000
  -V(xc)+E(xc)   XCENC  =      1649.64337339
  PAW double counting   =     26945.41143558   -27046.27172716
  entropy T*S    EENTRO =        -0.03788415
  eigenvalues    EBANDS =     -5049.59158378
  atomic energy  EATOM  =     21946.58214554
  Solvation  Ediel_sol  =         0.00000000
  ---------------------------------------------------
  free energy    TOTEN  =      -678.24899191 eV

  energy without entropy =     -678.21110776  energy(sigma->0) =     -678.23004984


--------------------------------------------------------------------------------------------------------




--------------------------------------- Iteration      1(   5)  ---------------------------------------


     EDDAV:  cpu time    2.4846: real time    2.5103
       DOS:  cpu time    0.0002: real time    0.0002
    CHARGE:  cpu time    0.2987: real time    0.3008
    MIXING:  cpu time    0.0061: real time    0.0065
    --------------------------------------------
      LOOP:  cpu time    2.7896: real time    2.8178

 eigenvalue-minimisations  :   648
 total energy-change (2. order) :-0.2510589E+02  (-0.2300485E+02)
 number of electron     384.0000524 magnetization 
 augmentation part       33.3143064 magnetization 

 DIPCOR: dipole corrections for dipol
 direction  3 min pos   374,
 dipolmoment           0.000000      0.000000      7.147315 electrons x Angstroem
 Tr[quadrupol]    -14350.451749

 energy correction for charged system         0.000000 eV
 dipol+quadrupol energy correction           -0.502108 eV
 added-field ion interaction          3.989223 eV  (added to PSCEN)


 Broyden mixing:
  rms(total) = 0.52604E-01    rms(broyden)= 0.52488E-01
  rms(prec ) = 0.53134E-01
  weight for this iteration     100.00

 Free energy of the ion-electron system (eV)
  ---------------------------------------------------
  alpha Z        PSCENC =        59.62026497
  Ewald energy   TEWEN  =    203536.58795998
  -Hartree energ DENC   =   -222720.19297630
  -exchange      EXHF   =         0.00000000
  -V(xc)+E(xc)   XCENC  =      1649.64337339
  PAW double counting   =     26945.41143558   -27046.27172716
  entropy T*S    EENTRO =        -0.00700523
  eigenvalues    EBANDS =     -5074.72835495
  atomic energy  EATOM  =     21946.58214554
  Solvation  Ediel_sol  =         0.00000000
  ---------------------------------------------------
  free energy    TOTEN  =      -703.35488417 eV

  energy without entropy =     -703.34787894  energy(sigma->0) =     -703.35138155


--------------------------------------------------------------------------------------------------------




--------------------------------------- Iteration      1(   6)  ---------------------------------------


    POTLOK:  cpu time    0.1983: real time    0.2004
    SETDIJ:  cpu time    0.0042: real time    0.0042
    EDDIAG:  cpu time    0.3703: real time    0.3745
  RMM-DIIS:  cpu time    1.9484: real time    1.9708
    ORTHCH:  cpu time    0.0399: real time    0.0403
       DOS:  cpu time    0.0003: real time    0.0004
    CHARGE:  cpu time    0.2924: real time    0.2942
    MIXING:  cpu time    0.0073: real time    0.0074
    --------------------------------------------
      LOOP:  cpu time    2.8613: real time    2.8923

 eigenvalue-minimisations  :   666
 total energy-change (2. order) :-0.5522414E+00  (-0.5601599E+00)
 number of electron     384.0000526 magnetization 
 augmentation part       33.4233820 magnetization 

 DIPCOR: dipole corrections for dipol
 direction  3 min pos   374,
 dipolmoment           0.000000      0.000000      7.103510 electrons x Angstroem
 Tr[quadrupol]    -14349.787537

 energy correction for charged system         0.000000 eV
 dipol+quadrupol energy correction           -0.495972 eV
 added-field ion interaction          3.964773 eV  (added to PSCEN)


 Broyden mixing:
  rms(total) = 0.31520E-01    rms(broyden)= 0.31405E-01
  rms(prec ) = 0.31737E-01
  weight for this iteration     100.00

 eigenvalues of (default mixing * dielectric matrix)
  average eigenvalue GAMMA=   0.6291
  0.6291

 Free energy of the ion-electron system (eV)
  ---------------------------------------------------
  alpha Z        PSCENC =        59.60195132
  Ewald energy   TEWEN  =    203536.58795998
  -Hartree energ DENC   =   -222709.97266818
  -exchange      EXHF   =         0.00000000
  -V(xc)+E(xc)   XCENC  =      1649.24479326
  PAW double counting   =     26935.95474983   -27036.65160197
  entropy T*S    EENTRO =        -0.00490911
  eigenvalues    EBANDS =     -5085.24954621
  atomic energy  EATOM  =     21946.58214554
  Solvation  Ediel_sol  =         0.00000000
  ---------------------------------------------------
  free energy    TOTEN  =      -703.90712554 eV

  energy without entropy =     -703.90221643  energy(sigma->0) =     -703.90467099


--------------------------------------------------------------------------------------------------------




--------------------------------------- Iteration      1(   7)  ---------------------------------------


    POTLOK:  cpu time    0.2001: real time    0.2023
    SETDIJ:  cpu time    0.0043: real time    0.0043
    EDDIAG:  cpu time    0.3704: real time    0.3745
  RMM-DIIS:  cpu time    2.2062: real time    2.2321
    ORTHCH:  cpu time    0.0400: real time    0.0404
       DOS:  cpu time    0.0003: real time    0.0003
    CHARGE:  cpu time    0.2930: real time    0.2948
    MIXING:  cpu time    0.0072: real time    0.0073
    --------------------------------------------
      LOOP:  cpu time    3.1215: real time    3.1559

 eigenvalue-minimisations  :   770
 total energy-change (2. order) :-0.1009546E+00  (-0.1031616E+00)
 number of electron     384.0000526 magnetization 
 augmentation part       33.4286888 magnetization 

 DIPCOR: dipole corrections for dipol
 direction  3 min pos   374,
 dipolmoment           0.000000      0.000000      7.098702 electrons x Angstroem
 Tr[quadrupol]    -14349.710748

 energy correction for charged system         0.000000 eV
 dipol+quadrupol energy correction           -0.495301 eV
 added-field ion interaction          3.962090 eV  (added to PSCEN)


 Broyden mixing:
  rms(total) = 0.27344E-01    rms(broyden)= 0.27306E-01
  rms(prec ) = 0.27618E-01
  weight for this iteration     100.00

 eigenvalues of (default mixing * dielectric matrix)
  average eigenvalue GAMMA=   0.6299
  0.6299  0.6299

 Free energy of the ion-electron system (eV)
  ---------------------------------------------------
  alpha Z        PSCENC =        59.59993922
  Ewald energy   TEWEN  =    203536.58795998
  -Hartree energ DENC   =   -222712.42542137
  -exchange      EXHF   =         0.00000000
  -V(xc)+E(xc)   XCENC  =      1649.40166132
  PAW double counting   =     26940.25518548   -27041.01372521
  entropy T*S    EENTRO =        -0.00519437
  eigenvalues    EBANDS =     -5082.99063073
  atomic energy  EATOM  =     21946.58214554
  Solvation  Ediel_sol  =         0.00000000
  ---------------------------------------------------
  free energy    TOTEN  =      -704.00808013 eV

  energy without entropy =     -704.00288575  energy(sigma->0) =     -704.00548294


--------------------------------------------------------------------------------------------------------




--------------------------------------- Iteration      1(   8)  ---------------------------------------


    POTLOK:  cpu time    0.1989: real time    0.2053
    SETDIJ:  cpu time    0.0042: real time    0.0043
    EDDIAG:  cpu time    0.3711: real time    0.3754
  RMM-DIIS:  cpu time    2.1088: real time    2.1336
    ORTHCH:  cpu time    0.0410: real time    0.0414
       DOS:  cpu time    0.0003: real time    0.0003
    CHARGE:  cpu time    0.2922: real time    0.2942
    MIXING:  cpu time    0.0073: real time    0.0074
    --------------------------------------------
      LOOP:  cpu time    3.0239: real time    3.0618

 eigenvalue-minimisations  :   735
 total energy-change (2. order) :-0.9820739E-03  (-0.5064192E-02)
 number of electron     384.0000526 magnetization 
 augmentation part       33.4257101 magnetization 

 DIPCOR: dipole corrections for dipol
 direction  3 min pos   374,
 dipolmoment           0.000000      0.000000      7.105741 electrons x Angstroem
 Tr[quadrupol]    -14349.782500

 energy correction for charged system         0.000000 eV
 dipol+quadrupol energy correction           -0.496284 eV
 added-field ion interaction          3.966019 eV  (added to PSCEN)


 Broyden mixing:
  rms(total) = 0.20114E-01    rms(broyden)= 0.20101E-01
  rms(prec ) = 0.20333E-01
  weight for this iteration     100.00

 eigenvalues of (default mixing * dielectric matrix)
  average eigenvalue GAMMA=   0.7339
  0.8150  0.8150  0.5717

 Free energy of the ion-electron system (eV)
  ---------------------------------------------------
  alpha Z        PSCENC =        59.60288509
  Ewald energy   TEWEN  =    203536.58795998
  -Hartree energ DENC   =   -222714.28439782
  -exchange      EXHF   =         0.00000000
  -V(xc)+E(xc)   XCENC  =      1649.48761597
  PAW double counting   =     26942.39809475   -27043.18810728
  entropy T*S    EENTRO =        -0.00542539
  eigenvalues    EBANDS =     -5081.18983305
  atomic energy  EATOM  =     21946.58214554
  Solvation  Ediel_sol  =         0.00000000
  ---------------------------------------------------
  free energy    TOTEN  =      -704.00906220 eV

  energy without entropy =     -704.00363681  energy(sigma->0) =     -704.00634951


--------------------------------------------------------------------------------------------------------




--------------------------------------- Iteration      1(   9)  ---------------------------------------


    POTLOK:  cpu time    0.1988: real time    0.2006
    SETDIJ:  cpu time    0.0043: real time    0.0043
    EDDIAG:  cpu time    0.3691: real time    0.3732
  RMM-DIIS:  cpu time    2.0372: real time    2.0608
    ORTHCH:  cpu time    0.0408: real time    0.0412
       DOS:  cpu time    0.0003: real time    0.0003
    CHARGE:  cpu time    0.2926: real time    0.2948
    MIXING:  cpu time    0.0074: real time    0.0074
    --------------------------------------------
      LOOP:  cpu time    2.9504: real time    2.9826

 eigenvalue-minimisations  :   710
 total energy-change (2. order) : 0.4131307E-03  (-0.3098253E-03)
 number of electron     384.0000526 magnetization 
 augmentation part       33.4179883 magnetization 

 DIPCOR: dipole corrections for dipol
 direction  3 min pos   374,
 dipolmoment           0.000000      0.000000      7.113091 electrons x Angstroem
 Tr[quadrupol]    -14349.860661

 energy correction for charged system         0.000000 eV
 dipol+quadrupol energy correction           -0.497311 eV
 added-field ion interaction          3.970121 eV  (added to PSCEN)


 Broyden mixing:
  rms(total) = 0.12268E-01    rms(broyden)= 0.12250E-01
  rms(prec ) = 0.12390E-01
  weight for this iteration     100.00

 eigenvalues of (default mixing * dielectric matrix)
  average eigenvalue GAMMA=   0.8089
  0.9862  0.9862  0.6317  0.6317

 Free energy of the ion-electron system (eV)
  ---------------------------------------------------
  alpha Z        PSCENC =        59.60596006
  Ewald energy   TEWEN  =    203536.58795998
  -Hartree energ DENC   =   -222715.91001129
  -exchange      EXHF   =         0.00000000
  -V(xc)+E(xc)   XCENC  =      1649.56011397
  PAW double counting   =     26944.15226836   -27044.97014557
  entropy T*S    EENTRO =        -0.00568693
  eigenvalues    EBANDS =     -5079.61125320
  atomic energy  EATOM  =     21946.58214554
  Solvation  Ediel_sol  =         0.00000000
  ---------------------------------------------------
  free energy    TOTEN  =      -704.00864907 eV

  energy without entropy =     -704.00296214  energy(sigma->0) =     -704.00580560


--------------------------------------------------------------------------------------------------------




--------------------------------------- Iteration      1(  10)  ---------------------------------------


    POTLOK:  cpu time    0.1982: real time    0.2001
    SETDIJ:  cpu time    0.0042: real time    0.0042
    EDDIAG:  cpu time    0.3682: real time    0.3721
  RMM-DIIS:  cpu time    2.0764: real time    2.1005
    ORTHCH:  cpu time    0.0404: real time    0.0407
       DOS:  cpu time    0.0003: real time    0.0003
    CHARGE:  cpu time    0.2913: real time    0.2934
    MIXING:  cpu time    0.0077: real time    0.0078
    --------------------------------------------
      LOOP:  cpu time    2.9866: real time    3.0192

 eigenvalue-minimisations  :   722
 total energy-change (2. order) : 0.9613189E-04  (-0.4468616E-04)
 number of electron     384.0000526 magnetization 
 augmentation part       33.4142271 magnetization 

 DIPCOR: dipole corrections for dipol
 direction  3 min pos   374,
 dipolmoment           0.000000      0.000000      7.117652 electrons x Angstroem
 Tr[quadrupol]    -14349.914384

 energy correction for charged system         0.000000 eV
 dipol+quadrupol energy correction           -0.497949 eV
 added-field ion interaction          3.972667 eV  (added to PSCEN)


 Broyden mixing:
  rms(total) = 0.86372E-02    rms(broyden)= 0.86133E-02
  rms(prec ) = 0.87110E-02
  weight for this iteration     100.00

 eigenvalues of (default mixing * dielectric matrix)
  average eigenvalue GAMMA=   0.8999
  1.2112  1.2112  0.7372  0.7372  0.6030

 Free energy of the ion-electron system (eV)
  ---------------------------------------------------
  alpha Z        PSCENC =        59.60786819
  Ewald energy   TEWEN  =    203536.58795998
  -Hartree energ DENC   =   -222716.63394541
  -exchange      EXHF   =         0.00000000
  -V(xc)+E(xc)   XCENC  =      1649.58771932
  PAW double counting   =     26944.66960532   -27045.49963973
  entropy T*S    EENTRO =        -0.00581457
  eigenvalues    EBANDS =     -5078.90445159
  atomic energy  EATOM  =     21946.58214554
  Solvation  Ediel_sol  =         0.00000000
  ---------------------------------------------------
  free energy    TOTEN  =      -704.00855294 eV

  energy without entropy =     -704.00273837  energy(sigma->0) =     -704.00564565


--------------------------------------------------------------------------------------------------------




--------------------------------------- Iteration      1(  11)  ---------------------------------------


    POTLOK:  cpu time    0.1984: real time    0.2003
    SETDIJ:  cpu time    0.0042: real time    0.0043
    EDDIAG:  cpu time    0.3681: real time    0.3721
  RMM-DIIS:  cpu time    2.1048: real time    2.1298
    ORTHCH:  cpu time    0.0404: real time    0.0407
       DOS:  cpu time    0.0003: real time    0.0003
    CHARGE:  cpu time    0.2903: real time    0.2924
    MIXING:  cpu time    0.0078: real time    0.0079
    --------------------------------------------
      LOOP:  cpu time    3.0143: real time    3.0477

 eigenvalue-minimisations  :   731
 total energy-change (2. order) : 0.3147462E-04  (-0.9872373E-05)
 number of electron     384.0000526 magnetization 
 augmentation part       33.4121191 magnetization 

 DIPCOR: dipole corrections for dipol
 direction  3 min pos   374,
 dipolmoment           0.000000      0.000000      7.121581 electrons x Angstroem
 Tr[quadrupol]    -14349.966652

 energy correction for charged system         0.000000 eV
 dipol+quadrupol energy correction           -0.498499 eV
 added-field ion interaction          3.974860 eV  (added to PSCEN)


 Broyden mixing:
  rms(total) = 0.65483E-02    rms(broyden)= 0.65174E-02
  rms(prec ) = 0.65925E-02
  weight for this iteration     100.00

 eigenvalues of (default mixing * dielectric matrix)
  average eigenvalue GAMMA=   1.0760
  1.6093  1.6093  0.9237  0.9237  0.6951  0.6951

 Free energy of the ion-electron system (eV)
  ---------------------------------------------------
  alpha Z        PSCENC =        59.60951122
  Ewald energy   TEWEN  =    203536.58795998
  -Hartree energ DENC   =   -222717.11172357
  -exchange      EXHF   =         0.00000000
  -V(xc)+E(xc)   XCENC  =      1649.60138590
  PAW double counting   =     26944.81328210   -27045.65072937
  entropy T*S    EENTRO =        -0.00589394
  eigenvalues    EBANDS =     -5078.43445933
  atomic energy  EATOM  =     21946.58214554
  Solvation  Ediel_sol  =         0.00000000
  ---------------------------------------------------
  free energy    TOTEN  =      -704.00852146 eV

  energy without entropy =     -704.00262752  energy(sigma->0) =     -704.00557449


--------------------------------------------------------------------------------------------------------




--------------------------------------- Iteration      1(  12)  ---------------------------------------


    POTLOK:  cpu time    0.1977: real time    0.1995
    SETDIJ:  cpu time    0.0043: real time    0.0043
    EDDIAG:  cpu time    0.3777: real time    0.3820
  RMM-DIIS:  cpu time    1.9373: real time    1.9608
    ORTHCH:  cpu time    0.0406: real time    0.0410
       DOS:  cpu time    0.0003: real time    0.0003
    CHARGE:  cpu time    0.2909: real time    0.2927
    MIXING:  cpu time    0.0079: real time    0.0080
    --------------------------------------------
      LOOP:  cpu time    2.8567: real time    2.8885

 eigenvalue-minimisations  :   675
 total energy-change (2. order) : 0.2846199E-04  (-0.1046047E-04)
 number of electron     384.0000526 magnetization 
 augmentation part       33.4096115 magnetization 

 DIPCOR: dipole corrections for dipol
 direction  3 min pos   374,
 dipolmoment           0.000000      0.000000      7.127431 electrons x Angstroem
 Tr[quadrupol]    -14350.048270

 energy correction for charged system         0.000000 eV
 dipol+quadrupol energy correction           -0.499318 eV
 added-field ion interaction          3.978125 eV  (added to PSCEN)


 Broyden mixing:
  rms(total) = 0.39122E-02    rms(broyden)= 0.38603E-02
  rms(prec ) = 0.39068E-02
  weight for this iteration     100.00

 eigenvalues of (default mixing * dielectric matrix)
  average eigenvalue GAMMA=   1.1636
  1.8810  1.8810  1.0850  1.0850  0.7661  0.7661  0.6814

 Free energy of the ion-electron system (eV)
  ---------------------------------------------------
  alpha Z        PSCENC =        59.61195706
  Ewald energy   TEWEN  =    203536.58795998
  -Hartree energ DENC   =   -222717.82148296
  -exchange      EXHF   =         0.00000000
  -V(xc)+E(xc)   XCENC  =      1649.62031709
  PAW double counting   =     26945.08182349   -27045.92921958
  entropy T*S    EENTRO =        -0.00600885
  eigenvalues    EBANDS =     -5077.73598478
  atomic energy  EATOM  =     21946.58214554
  Solvation  Ediel_sol  =         0.00000000
  ---------------------------------------------------
  free energy    TOTEN  =      -704.00849300 eV

  energy without entropy =     -704.00248415  energy(sigma->0) =     -704.00548858


--------------------------------------------------------------------------------------------------------




--------------------------------------- Iteration      1(  13)  ---------------------------------------


    POTLOK:  cpu time    0.1978: real time    0.1999
    SETDIJ:  cpu time    0.0042: real time    0.0043
    EDDIAG:  cpu time    0.3697: real time    0.3739
  RMM-DIIS:  cpu time    1.9616: real time    1.9851
    ORTHCH:  cpu time    0.0407: real time    0.0411
       DOS:  cpu time    0.0003: real time    0.0003
    CHARGE:  cpu time    0.2901: real time    0.2920
    MIXING:  cpu time    0.0082: real time    0.0082
    --------------------------------------------
      LOOP:  cpu time    2.8726: real time    2.9048

 eigenvalue-minimisations  :   682
 total energy-change (2. order) : 0.5301546E-05  (-0.7494291E-05)
 number of electron     384.0000526 magnetization 
 augmentation part       33.4075361 magnetization 

 DIPCOR: dipole corrections for dipol
 direction  3 min pos   374,
 dipolmoment           0.000000      0.000000      7.132807 electrons x Angstroem
 Tr[quadrupol]    -14350.127757

 energy correction for charged system         0.000000 eV
 dipol+quadrupol energy correction           -0.500072 eV
 added-field ion interaction          3.981125 eV  (added to PSCEN)


 Broyden mixing:
  rms(total) = 0.18536E-02    rms(broyden)= 0.17417E-02
  rms(prec ) = 0.17653E-02
  weight for this iteration     100.00

 eigenvalues of (default mixing * dielectric matrix)
  average eigenvalue GAMMA=   1.2560
  2.2503  2.2503  1.1265  1.1265  0.8934  0.8934  0.7539  0.7539

 Free energy of the ion-electron system (eV)
  ---------------------------------------------------
  alpha Z        PSCENC =        59.61420385
  Ewald energy   TEWEN  =    203536.58795998
  -Hartree energ DENC   =   -222718.45873832
  -exchange      EXHF   =         0.00000000
  -V(xc)+E(xc)   XCENC  =      1649.63559431
  PAW double counting   =     26945.33290881   -27046.18816382
  entropy T*S    EENTRO =        -0.00610965
  eigenvalues    EBANDS =     -5077.10828841
  atomic energy  EATOM  =     21946.58214554
  Solvation  Ediel_sol  =         0.00000000
  ---------------------------------------------------
  free energy    TOTEN  =      -704.00848770 eV

  energy without entropy =     -704.00237805  energy(sigma->0) =     -704.00543288


--------------------------------------------------------------------------------------------------------




--------------------------------------- Iteration      1(  14)  ---------------------------------------


    POTLOK:  cpu time    0.1970: real time    0.1995
    SETDIJ:  cpu time    0.0042: real time    0.0043
    EDDIAG:  cpu time    0.3689: real time    0.3731
  RMM-DIIS:  cpu time    1.9351: real time    1.9582
    ORTHCH:  cpu time    0.0404: real time    0.0408
       DOS:  cpu time    0.0003: real time    0.0003
    CHARGE:  cpu time    0.2905: real time    0.2924
    MIXING:  cpu time    0.0083: real time    0.0084
    --------------------------------------------
      LOOP:  cpu time    2.8449: real time    2.8770

 eigenvalue-minimisations  :   667
 total energy-change (2. order) :-0.5782524E-05  (-0.1207076E-05)
 number of electron     384.0000526 magnetization 
 augmentation part       33.4068793 magnetization 

 DIPCOR: dipole corrections for dipol
 direction  3 min pos   374,
 dipolmoment           0.000000      0.000000      7.135900 electrons x Angstroem
 Tr[quadrupol]    -14350.183621

 energy correction for charged system         0.000000 eV
 dipol+quadrupol energy correction           -0.500505 eV
 added-field ion interaction          3.982852 eV  (added to PSCEN)


 Broyden mixing:
  rms(total) = 0.13355E-02    rms(broyden)= 0.11765E-02
  rms(prec ) = 0.11927E-02
  weight for this iteration     100.00
  WARNING: grid for Broyden might be to small

 eigenvalues of (default mixing * dielectric matrix)
  average eigenvalue GAMMA=   1.3251
  2.6406  2.6406  1.1771  1.1771  1.0028  1.0028  0.7055  0.7895  0.7895

 Free energy of the ion-electron system (eV)
  ---------------------------------------------------
  alpha Z        PSCENC =        59.61549627
  Ewald energy   TEWEN  =    203536.58795998
  -Hartree energ DENC   =   -222718.76965814
  -exchange      EXHF   =         0.00000000
  -V(xc)+E(xc)   XCENC  =      1649.63824551
  PAW double counting   =     26945.37519462   -27046.23217100
  entropy T*S    EENTRO =        -0.00614855
  eigenvalues    EBANDS =     -5076.79955770
  atomic energy  EATOM  =     21946.58214554
  Solvation  Ediel_sol  =         0.00000000
  ---------------------------------------------------
  free energy    TOTEN  =      -704.00849348 eV

  energy without entropy =     -704.00234493  energy(sigma->0) =     -704.00541920


--------------------------------------------------------------------------------------------------------




--------------------------------------- Iteration      1(  15)  ---------------------------------------


    POTLOK:  cpu time    0.1971: real time    0.1992
    SETDIJ:  cpu time    0.0042: real time    0.0042
    EDDIAG:  cpu time    0.3686: real time    0.3732
  RMM-DIIS:  cpu time    1.4579: real time    1.4753
    ORTHCH:  cpu time    0.0404: real time    0.0408
       DOS:  cpu time    0.0003: real time    0.0003
    CHARGE:  cpu time    0.2899: real time    0.2920
    MIXING:  cpu time    0.0086: real time    0.0087
    --------------------------------------------
      LOOP:  cpu time    2.3671: real time    2.3938

 eigenvalue-minimisations  :   493
 total energy-change (2. order) :-0.8738883E-05  (-0.1704861E-06)
 number of electron     384.0000526 magnetization 
 augmentation part       33.4067020 magnetization 

 DIPCOR: dipole corrections for dipol
 direction  3 min pos   374,
 dipolmoment           0.000000      0.000000      7.138557 electrons x Angstroem
 Tr[quadrupol]    -14350.237334

 energy correction for charged system         0.000000 eV
 dipol+quadrupol energy correction           -0.500878 eV
 added-field ion interaction          3.984335 eV  (added to PSCEN)


 Broyden mixing:
  rms(total) = 0.12023E-02    rms(broyden)= 0.10231E-02
  rms(prec ) = 0.10361E-02
  weight for this iteration     100.00
  WARNING: grid for Broyden might be to small

 eigenvalues of (default mixing * dielectric matrix)
  average eigenvalue GAMMA=   1.4074
  3.0457  3.0457  1.1816  1.1816  1.1255  1.1255  0.7708  0.7708  0.9135  0.9135

 Free energy of the ion-electron system (eV)
  ---------------------------------------------------
  alpha Z        PSCENC =        59.61660656
  Ewald energy   TEWEN  =    203536.58795998
  -Hartree energ DENC   =   -222719.01404474
  -exchange      EXHF   =         0.00000000
  -V(xc)+E(xc)   XCENC  =      1649.63765939
  PAW double counting   =     26945.32706852   -27046.18432990
  entropy T*S    EENTRO =        -0.00617465
  eigenvalues    EBANDS =     -5076.55539293
  atomic energy  EATOM  =     21946.58214554
  Solvation  Ediel_sol  =         0.00000000
  ---------------------------------------------------
  free energy    TOTEN  =      -704.00850222 eV

  energy without entropy =     -704.00232757  energy(sigma->0) =     -704.00541489


--------------------------------------------------------------------------------------------------------




--------------------------------------- Iteration      1(  16)  ---------------------------------------


    POTLOK:  cpu time    0.1969: real time    0.1987
    SETDIJ:  cpu time    0.0042: real time    0.0042
    EDDIAG:  cpu time    0.3696: real time    0.3739
  RMM-DIIS:  cpu time    1.6151: real time    1.6346
    ORTHCH:  cpu time    0.0405: real time    0.0409
       DOS:  cpu time    0.0003: real time    0.0003
    CHARGE:  cpu time    0.2914: real time    0.2932
    MIXING:  cpu time    0.0090: real time    0.0090
    --------------------------------------------
      LOOP:  cpu time    2.5270: real time    2.5550

 eigenvalue-minimisations  :   555
 total energy-change (2. order) :-0.8473457E-05  (-0.3218041E-06)
 number of electron     384.0000526 magnetization 
 augmentation part       33.4063205 magnetization 

 DIPCOR: dipole corrections for dipol
 direction  3 min pos   374,
 dipolmoment           0.000000      0.000000      7.141276 electrons x Angstroem
 Tr[quadrupol]    -14350.292450

 energy correction for charged system         0.000000 eV
 dipol+quadrupol energy correction           -0.501260 eV
 added-field ion interaction          3.985853 eV  (added to PSCEN)


 Broyden mixing:
  rms(total) = 0.92645E-03    rms(broyden)= 0.67788E-03
  rms(prec ) = 0.68539E-03
  weight for this iteration     100.00
  WARNING: grid for Broyden might be to small

 eigenvalues of (default mixing * dielectric matrix)
  average eigenvalue GAMMA=   1.4428
  3.3265  3.3265  1.3815  1.3815  1.1319  1.1319  0.9234  0.9234  0.7291  0.8075
  0.8075

 Free energy of the ion-electron system (eV)
  ---------------------------------------------------
  alpha Z        PSCENC =        59.61774278
  Ewald energy   TEWEN  =    203536.58795998
  -Hartree energ DENC   =   -222719.31850110
  -exchange      EXHF   =         0.00000000
  -V(xc)+E(xc)   XCENC  =      1649.64028293
  PAW double counting   =     26945.37691427   -27046.23550427
  entropy T*S    EENTRO =        -0.00621307
  eigenvalues    EBANDS =     -5076.25333776
  atomic energy  EATOM  =     21946.58214554
  Solvation  Ediel_sol  =         0.00000000
  ---------------------------------------------------
  free energy    TOTEN  =      -704.00851069 eV

  energy without entropy =     -704.00229763  energy(sigma->0) =     -704.00540416


--------------------------------------------------------------------------------------------------------




--------------------------------------- Iteration      1(  17)  ---------------------------------------


    POTLOK:  cpu time    0.1962: real time    0.1983
    SETDIJ:  cpu time    0.0042: real time    0.0042
    EDDIAG:  cpu time    0.3681: real time    0.3729
  RMM-DIIS:  cpu time    1.4433: real time    1.4600
    ORTHCH:  cpu time    0.0405: real time    0.0409
       DOS:  cpu time    0.0003: real time    0.0003
    CHARGE:  cpu time    0.2888: real time    0.2909
    MIXING:  cpu time    0.0092: real time    0.0093
    --------------------------------------------
      LOOP:  cpu time    2.3507: real time    2.3769

 eigenvalue-minimisations  :   484
 total energy-change (2. order) :-0.6178350E-05  (-0.1631154E-06)
 number of electron     384.0000526 magnetization 
 augmentation part       33.4060787 magnetization 

 DIPCOR: dipole corrections for dipol
 direction  3 min pos   374,
 dipolmoment           0.000000      0.000000      7.142933 electrons x Angstroem
 Tr[quadrupol]    -14350.330433

 energy correction for charged system         0.000000 eV
 dipol+quadrupol energy correction           -0.501492 eV
 added-field ion interaction          3.986777 eV  (added to PSCEN)


 Broyden mixing:
  rms(total) = 0.80631E-03    rms(broyden)= 0.50142E-03
  rms(prec ) = 0.50542E-03
  weight for this iteration     100.00
  WARNING: grid for Broyden might be to small

 eigenvalues of (default mixing * dielectric matrix)
  average eigenvalue GAMMA=   1.4235
  3.3291  3.3291  1.5265  1.5265  1.1372  1.1372  0.9748  0.9748  0.8271  0.8271
  0.7465  0.7465

 Free energy of the ion-electron system (eV)
  ---------------------------------------------------
  alpha Z        PSCENC =        59.61843496
  Ewald energy   TEWEN  =    203536.58795998
  -Hartree energ DENC   =   -222719.52962769
  -exchange      EXHF   =         0.00000000
  -V(xc)+E(xc)   XCENC  =      1649.64228639
  PAW double counting   =     26945.41798157   -27046.27738260
  entropy T*S    EENTRO =        -0.00623791
  eigenvalues    EBANDS =     -5076.04407712
  atomic energy  EATOM  =     21946.58214554
  Solvation  Ediel_sol  =         0.00000000
  ---------------------------------------------------
  free energy    TOTEN  =      -704.00851687 eV

  energy without entropy =     -704.00227896  energy(sigma->0) =     -704.00539792


--------------------------------------------------------------------------------------------------------




--------------------------------------- Iteration      1(  18)  ---------------------------------------


    POTLOK:  cpu time    0.1957: real time    0.1975
    SETDIJ:  cpu time    0.0042: real time    0.0042
    EDDIAG:  cpu time    0.3687: real time    0.3731
  RMM-DIIS:  cpu time    1.4521: real time    1.4694
    ORTHCH:  cpu time    0.0405: real time    0.0409
       DOS:  cpu time    0.0003: real time    0.0003
    CHARGE:  cpu time    0.2882: real time    0.2900
    MIXING:  cpu time    0.0095: real time    0.0096
    --------------------------------------------
      LOOP:  cpu time    2.3592: real time    2.3850

 eigenvalue-minimisations  :   485
 total energy-change (2. order) :-0.3384368E-05  (-0.7140258E-07)
 number of electron     384.0000526 magnetization 
 augmentation part       33.4059512 magnetization 

 DIPCOR: dipole corrections for dipol
 direction  3 min pos   374,
 dipolmoment           0.000000      0.000000      7.143705 electrons x Angstroem
 Tr[quadrupol]    -14350.349649

 energy correction for charged system         0.000000 eV
 dipol+quadrupol energy correction           -0.501601 eV
 added-field ion interaction          3.987208 eV  (added to PSCEN)


 Broyden mixing:
  rms(total) = 0.76935E-03    rms(broyden)= 0.43957E-03
  rms(prec ) = 0.44213E-03
  weight for this iteration     100.00
  WARNING: grid for Broyden might be to small

 eigenvalues of (default mixing * dielectric matrix)
  average eigenvalue GAMMA=   1.5365
  4.0418  3.4630  1.6073  1.6073  1.1492  1.1492  1.3372  1.3372  0.9205  0.9205
  0.7447  0.8483  0.8483

 Free energy of the ion-electron system (eV)
  ---------------------------------------------------
  alpha Z        PSCENC =        59.61875726
  Ewald energy   TEWEN  =    203536.58795998
  -Hartree energ DENC   =   -222719.62871292
  -exchange      EXHF   =         0.00000000
  -V(xc)+E(xc)   XCENC  =      1649.64289526
  PAW double counting   =     26945.41956752   -27046.27931236
  entropy T*S    EENTRO =        -0.00624816
  eigenvalues    EBANDS =     -5075.94557238
  atomic energy  EATOM  =     21946.58214554
  Solvation  Ediel_sol  =         0.00000000
  ---------------------------------------------------
  free energy    TOTEN  =      -704.00852026 eV

  energy without entropy =     -704.00227209  energy(sigma->0) =     -704.00539618


--------------------------------------------------------------------------------------------------------




--------------------------------------- Iteration      1(  19)  ---------------------------------------


    POTLOK:  cpu time    0.1985: real time    0.2005
    SETDIJ:  cpu time    0.0042: real time    0.0042
    EDDIAG:  cpu time    0.3690: real time    0.3734
  RMM-DIIS:  cpu time    1.4205: real time    1.4367
    ORTHCH:  cpu time    0.0404: real time    0.0408
       DOS:  cpu time    0.0003: real time    0.0003
    CHARGE:  cpu time    0.2881: real time    0.2901
    MIXING:  cpu time    0.0097: real time    0.0098
    --------------------------------------------
      LOOP:  cpu time    2.3307: real time    2.3558

 eigenvalue-minimisations  :   471
 total energy-change (2. order) :-0.1001413E-04  (-0.6400589E-07)
 number of electron     384.0000526 magnetization 
 augmentation part       33.4058222 magnetization 

 DIPCOR: dipole corrections for dipol
 direction  3 min pos   374,
 dipolmoment           0.000000      0.000000      7.145650 electrons x Angstroem
 Tr[quadrupol]    -14350.403390

 energy correction for charged system         0.000000 eV
 dipol+quadrupol energy correction           -0.501874 eV
 added-field ion interaction          3.988294 eV  (added to PSCEN)


 Broyden mixing:
  rms(total) = 0.74211E-03    rms(broyden)= 0.38995E-03
  rms(prec ) = 0.39066E-03
  weight for this iteration     100.00
  WARNING: grid for Broyden might be to small

 eigenvalues of (default mixing * dielectric matrix)
  average eigenvalue GAMMA=   1.5259
  5.3048  2.5020  2.5020  1.1442  1.1442  1.3350  1.3350  1.0077  1.0077  0.7404
  0.8210  0.8210  0.8487  0.8487

 Free energy of the ion-electron system (eV)
  ---------------------------------------------------
  alpha Z        PSCENC =        59.61956985
  Ewald energy   TEWEN  =    203536.58795998
  -Hartree energ DENC   =   -222719.88573326
  -exchange      EXHF   =         0.00000000
  -V(xc)+E(xc)   XCENC  =      1649.64346249
  PAW double counting   =     26945.40459652   -27046.26472270
  entropy T*S    EENTRO =        -0.00627016
  eigenvalues    EBANDS =     -5075.68953854
  atomic energy  EATOM  =     21946.58214554
  Solvation  Ediel_sol  =         0.00000000
  ---------------------------------------------------
  free energy    TOTEN  =      -704.00853027 eV

  energy without entropy =     -704.00226011  energy(sigma->0) =     -704.00539519


--------------------------------------------------------------------------------------------------------




--------------------------------------- Iteration      1(  20)  ---------------------------------------


    POTLOK:  cpu time    0.1983: real time    0.2006
    SETDIJ:  cpu time    0.0042: real time    0.0042
    EDDIAG:  cpu time    0.3687: real time    0.3728
  RMM-DIIS:  cpu time    1.3933: real time    1.4094
    ORTHCH:  cpu time    0.0404: real time    0.0408
       DOS:  cpu time    0.0003: real time    0.0003
[...]
      2.59320      0.00000      8.66044         0.000948      0.000000     -0.001412
      3.50743      0.00000     10.02065        -0.000813      0.000000     -0.002676
      2.37782      4.11851      8.66044        -0.000474     -0.000821     -0.001412
      1.92071      3.32677     10.02065         0.000406      0.000704     -0.002676
     -1.29660      2.24578      8.66044        -0.000474      0.000821     -0.001412
     -1.75371      3.03752     10.02065         0.000406     -0.000704     -0.002676
      4.74754      0.00000     12.66690        -0.001374     -0.000000     -0.002466
      3.83980      0.00000     14.03517         0.000562      0.000000      0.001577
      1.30066      2.25280     12.66690         0.000687      0.001190     -0.002466
      1.75453      3.03893     14.03517        -0.000281     -0.000486      0.001577
     12.32393      4.11149     12.66690         0.000687     -0.001190     -0.002466
     -1.91990      3.32536     14.03517        -0.000281      0.000486      0.001577
      9.37064      0.80236     14.29103         0.000268      0.000163      0.002176
     10.70724      4.21219     14.29103         0.000007     -0.000313      0.002176
      5.64309      1.34974     14.29103        -0.000275      0.000151      0.002176
      7.66315      2.15268     10.27736        -0.000257      0.000734     -0.000176
      5.38154      5.01576     10.27736         0.000764     -0.000145     -0.000176
      3.98873      4.21161     10.27736        -0.000257     -0.000734     -0.000176
      9.05597      1.34853     10.27736         0.000764      0.000145     -0.000176
     12.67627      0.80414     10.27736        -0.000507      0.000589     -0.000176
      7.03282      2.15210     14.29103         0.000007      0.000313      0.002176
      9.31752      5.01455     14.29103        -0.000275     -0.000151      0.002176
      9.94205      0.00000      8.66044         0.000948      0.000000     -0.001412
     10.85628      0.00000     10.02065        -0.000813      0.000000     -0.002676
      9.72667      4.11851      8.66044        -0.000474     -0.000821     -0.001412
      9.26956      3.32677     10.02065         0.000406      0.000704     -0.002676
      6.05225      2.24578      8.66044        -0.000474      0.000821     -0.001412
      5.59514      3.03752     10.02065         0.000406     -0.000704     -0.002676
     12.09639      0.00000     12.66690        -0.001374     -0.000000     -0.002466
     11.18865      0.00000     14.03517         0.000562     -0.000000      0.001577
      8.64951      2.25280     12.66690         0.000687      0.001190     -0.002466
      9.10338      3.03893     14.03517        -0.000281     -0.000486      0.001577
      4.97508      4.11149     12.66690         0.000687     -0.001190     -0.002466
      5.42895      3.32536     14.03517        -0.000281      0.000486      0.001577
     -1.65263      7.16665     14.29103         0.000268      0.000163      0.002176
     -0.31603     10.57648     14.29103         0.000007     -0.000313      0.002176
      1.65300      5.56015     10.27736        -0.000507     -0.000589     -0.000176
     -3.36012      8.51697     10.27736        -0.000257      0.000734     -0.000176
     -5.64173     11.38005     10.27736         0.000764     -0.000145     -0.000176
     -1.96731      7.71282     10.27736         0.000764      0.000145     -0.000176
      1.65300      7.16843     10.27736        -0.000507      0.000589     -0.000176
     -3.99046      8.51639     14.29103         0.000007      0.000313      0.002176
     -1.70576     11.37884     14.29103        -0.000275     -0.000151      0.002176
     -1.65263      5.56193     14.29103         0.000268     -0.000163      0.002176
     -1.08122      6.36429      8.66044         0.000948      0.000000     -0.001412
     -0.16700      6.36429     10.02065        -0.000813     -0.000000     -0.002676
     -1.29660     10.48280      8.66044        -0.000474     -0.000821     -0.001412
     -1.75371      9.69106     10.02065         0.000406      0.000704     -0.002676
     -4.97103      8.61007      8.66044        -0.000474      0.000821     -0.001412
     -5.42814      9.40181     10.02065         0.000406     -0.000704     -0.002676
      1.07311      6.36429     12.66690        -0.001374      0.000000     -0.002466
      0.16537      6.36429     14.03517         0.000562     -0.000000      0.001577
     -2.37377      8.61709     12.66690         0.000687      0.001190     -0.002466
     -1.91990      9.40322     14.03517        -0.000281     -0.000486      0.001577
     -6.04819     10.47578     12.66690         0.000687     -0.001190     -0.002466
     -5.59432      9.68965     14.03517        -0.000281      0.000486      0.001577
      5.69622      7.16665     14.29103         0.000268      0.000163      0.002176
      7.03282     10.57648     14.29103         0.000007     -0.000313      0.002176
      1.96867      7.71403     14.29103        -0.000275      0.000151      0.002176
      9.00185      5.56015     10.27736        -0.000507     -0.000589     -0.000176
      3.98873      8.51697     10.27736        -0.000257      0.000734     -0.000176
      1.70712     11.38005     10.27736         0.000764     -0.000145     -0.000176
      0.31431     10.57591     10.27736        -0.000257     -0.000734     -0.000176
      5.38154      7.71282     10.27736         0.000764      0.000145     -0.000176
      9.00185      7.16843     10.27736        -0.000507      0.000589     -0.000176
      3.35839      8.51639     14.29103         0.000007      0.000313      0.002176
      5.64309     11.37884     14.29103        -0.000275     -0.000151      0.002176
      5.69622      5.56193     14.29103         0.000268     -0.000163      0.002176
      6.26763      6.36429      8.66044         0.000948      0.000000     -0.001412
      7.18185      6.36429     10.02065        -0.000813      0.000000     -0.002676
      6.05225     10.48280      8.66044        -0.000474     -0.000821     -0.001412
      5.59514      9.69106     10.02065         0.000406      0.000704     -0.002676
      2.37782      8.61007      8.66044        -0.000474      0.000821     -0.001412
      1.92071      9.40181     10.02065         0.000406     -0.000704     -0.002676
      8.42196      6.36429     12.66690        -0.001374      0.000000     -0.002466
      7.51422      6.36429     14.03517         0.000562     -0.000000      0.001577
      4.97508      8.61709     12.66690         0.000687      0.001190     -0.002466
      5.42895      9.40322     14.03517        -0.000281     -0.000486      0.001577
      1.30066     10.47578     12.66690         0.000687     -0.001190     -0.002466
      1.75453      9.68965     14.03517        -0.000281      0.000486      0.001577
     12.99194      1.34974     14.29103        -0.000275      0.000151      0.002176
     11.33758      4.21161     10.27736        -0.000257     -0.000734     -0.000176
      9.31752      7.71403     14.29103        -0.000275      0.000151      0.002176
      7.66315     10.57591     10.27736        -0.000257     -0.000734     -0.000176
     -2.02142     11.92444     10.27736        -0.000507     -0.000589     -0.000176
     -5.32706     11.92622     14.29103         0.000268     -0.000163      0.002176
      5.32743     11.92444     10.27736        -0.000507     -0.000589     -0.000176
      2.02179     11.92622     14.29103         0.000268     -0.000163      0.002176
      2.50912      0.00000      9.62735        -0.000098     -0.000000     -0.002877
      2.53694      0.00000     14.58252         0.000231      0.000000      0.002296
      2.41987      4.19133      9.62735         0.000049      0.000085     -0.002877
      2.40596      4.16724     14.58252        -0.000115     -0.000200      0.002296
     -1.25456      2.17296      9.62735         0.000049     -0.000085     -0.002877
     -1.26847      2.19705     14.58252        -0.000115      0.000200      0.002296
      4.83363      0.00000     13.63567        -0.000346      0.000000      0.001390
      4.80761      0.00000     10.55773         0.001051     -0.000000      0.000167
      1.25761      2.17824     13.63567         0.000173      0.000300      0.001390
      1.27062      2.20078     10.55773        -0.000525     -0.000910      0.000167
     12.28088      4.18605     13.63567         0.000173     -0.000300      0.001390
     -2.40380      4.16351     10.55773        -0.000525      0.000910      0.000167
      9.85797      0.00000      9.62735        -0.000098     -0.000000     -0.002877
      9.88579      0.00000     14.58252         0.000231     -0.000000      0.002296
      9.76872      4.19133      9.62735         0.000049      0.000085     -0.002877
      9.75481      4.16724     14.58252        -0.000115     -0.000200      0.002296
      6.09429      2.17296      9.62735         0.000049     -0.000085     -0.002877
      6.08038      2.19705     14.58252        -0.000115      0.000200      0.002296
     12.18248      0.00000     13.63567        -0.000346      0.000000      0.001390
     12.15646      0.00000     10.55773         0.001051     -0.000000      0.000167
      8.60646      2.17824     13.63567         0.000173      0.000300      0.001390
      8.61947      2.20078     10.55773        -0.000525     -0.000910      0.000167
      4.93203      4.18605     13.63567         0.000173     -0.000300      0.001390
      4.94505      4.16351     10.55773        -0.000525      0.000910      0.000167
     -1.16531      6.36429      9.62735        -0.000098     -0.000000     -0.002877
     -1.13749      6.36429     14.58252         0.000231     -0.000000      0.002296
     -1.25456     10.55562      9.62735         0.000049      0.000085     -0.002877
     -1.26847     10.53153     14.58252        -0.000115     -0.000200      0.002296
     -4.92898      8.53725      9.62735         0.000049     -0.000085     -0.002877
      9.75481      8.56134     14.58252        -0.000115      0.000200      0.002296
      1.15921      6.36429     13.63567        -0.000346     -0.000000      0.001390
      1.13318      6.36429     10.55773         0.001051      0.000000      0.000167
     -2.41682      8.54253     13.63567         0.000173      0.000300      0.001390
     -2.40380      8.56507     10.55773        -0.000525     -0.000910      0.000167
     -6.09124     10.55034     13.63567         0.000173     -0.000300      0.001390
      8.61947     10.52780     10.55773        -0.000525      0.000910      0.000167
      6.18354      6.36429      9.62735        -0.000098     -0.000000     -0.002877
      6.21136      6.36429     14.58252         0.000231     -0.000000      0.002296
      6.09429     10.55562      9.62735         0.000049      0.000085     -0.002877
      6.08038     10.53153     14.58252        -0.000115     -0.000200      0.002296
      2.41987      8.53725      9.62735         0.000049     -0.000085     -0.002877
      2.40596      8.56134     14.58252        -0.000115      0.000200      0.002296
      8.50806      6.36429     13.63567        -0.000346     -0.000000      0.001390
      8.48203      6.36429     10.55773         0.001051      0.000000      0.000167
      4.93203      8.54253     13.63567         0.000173      0.000300      0.001390
      4.94505      8.56507     10.55773        -0.000525     -0.000910      0.000167
      1.25761     10.55034     13.63567         0.000173     -0.000300      0.001390
      1.27062     10.52780     10.55773        -0.000525      0.000910      0.000167
 -----------------------------------------------------------------------------------
    total drift:                                0.003655     -0.002587     -0.278175


--------------------------------------------------------------------------------------------------------



  FREE ENERGIE OF THE ION-ELECTRON SYSTEM (eV)
  ---------------------------------------------------
  free  energy   TOTEN  =      -707.37673723 eV

  energy  without entropy=     -707.37045299  energy(sigma->0) =     -707.37359511
 


--------------------------------------------------------------------------------------------------------


    POTLOK:  cpu time    0.1976: real time    0.1994


--------------------------------------------------------------------------------------------------------


     LOOP+:  cpu time   78.0800: real time   78.9319
 vacuum level on the upper side and lower side of the slab         3.924        -2.988
    4ORBIT:  cpu time    0.0000: real time    0.0000
 


 total charge     
 
# of ion       s       p       d       tot
------------------------------------------
    1        0.578   0.116   0.000   0.694
    2        0.578   0.116   0.000   0.694
    3        0.576   0.116   0.000   0.692
    4        0.576   0.116   0.000   0.692
    5        0.576   0.116   0.000   0.692
    6        0.576   0.116   0.000   0.692
    7        0.578   0.116   0.000   0.694
    8        0.578   0.116   0.000   0.694
    9        0.634   0.115   0.000   0.749
   10        0.504   0.105   0.000   0.609
   11        0.634   0.115   0.000   0.749
   12        0.504   0.105   0.000   0.609
   13        0.634   0.115   0.000   0.749
   14        0.504   0.105   0.000   0.609
   15        0.627   0.118   0.000   0.745
   16        0.506   0.105   0.000   0.611
   17        0.627   0.118   0.000   0.745
   18        0.506   0.105   0.000   0.611
   19        0.627   0.118   0.000   0.745
   20        0.506   0.105   0.000   0.611
   21        0.578   0.116   0.000   0.694
   22        0.578   0.116   0.000   0.694
   23        0.578   0.116   0.000   0.694
   24        0.576   0.116   0.000   0.692
   25        0.576   0.116   0.000   0.692
   26        0.576   0.116   0.000   0.692
   27        0.576   0.116   0.000   0.692
   28        0.576   0.116   0.000   0.692
   29        0.578   0.116   0.000   0.694
   30        0.578   0.116   0.000   0.694
   31        0.634   0.115   0.000   0.749
   32        0.504   0.105   0.000   0.609
   33        0.634   0.115   0.000   0.749
   34        0.504   0.105   0.000   0.609
   35        0.634   0.115   0.000   0.749
   36        0.504   0.105   0.000   0.609
   37        0.627   0.118   0.000   0.745
   38        0.506   0.105   0.000   0.611
   39        0.627   0.118   0.000   0.745
   40        0.506   0.105   0.000   0.611
   41        0.627   0.118   0.000   0.745
   42        0.506   0.105   0.000   0.611
   43        0.578   0.116   0.000   0.694
   44        0.578   0.116   0.000   0.694
   45        0.576   0.116   0.000   0.692
   46        0.576   0.116   0.000   0.692
   47        0.576   0.116   0.000   0.692
   48        0.576   0.116   0.000   0.692
   49        0.576   0.116   0.000   0.692
   50        0.578   0.116   0.000   0.694
   51        0.578   0.116   0.000   0.694
   52        0.578   0.116   0.000   0.694
   53        0.634   0.115   0.000   0.749
   54        0.504   0.105   0.000   0.609
   55        0.634   0.115   0.000   0.749
   56        0.504   0.105   0.000   0.609
   57        0.634   0.115   0.000   0.749
   58        0.504   0.105   0.000   0.609
   59        0.627   0.118   0.000   0.745
   60        0.506   0.105   0.000   0.611
   61        0.627   0.118   0.000   0.745
   62        0.506   0.105   0.000   0.611
   63        0.627   0.118   0.000   0.745
   64        0.506   0.105   0.000   0.611
   65        0.578   0.116   0.000   0.694
   66        0.578   0.116   0.000   0.694
   67        0.578   0.116   0.000   0.694
   68        0.576   0.116   0.000   0.692
   69        0.576   0.116   0.000   0.692
   70        0.576   0.116   0.000   0.692
   71        0.576   0.116   0.000   0.692
   72        0.576   0.116   0.000   0.692
   73        0.576   0.116   0.000   0.692
   74        0.578   0.116   0.000   0.694
   75        0.578   0.116   0.000   0.694
   76        0.578   0.116   0.000   0.694
   77        0.634   0.115   0.000   0.749
   78        0.504   0.105   0.000   0.609
   79        0.634   0.115   0.000   0.749
   80        0.504   0.105   0.000   0.609
   81        0.634   0.115   0.000   0.749
   82        0.504   0.105   0.000   0.609
   83        0.627   0.118   0.000   0.745
   84        0.506   0.105   0.000   0.611
   85        0.627   0.118   0.000   0.745
   86        0.506   0.105   0.000   0.611
   87        0.627   0.118   0.000   0.745
   88        0.506   0.105   0.000   0.611
   89        0.578   0.116   0.000   0.694
   90        0.576   0.116   0.000   0.692
   91        0.578   0.116   0.000   0.694
   92        0.576   0.116   0.000   0.692
   93        0.576   0.116   0.000   0.692
   94        0.578   0.116   0.000   0.694
   95        0.576   0.116   0.000   0.692
   96        0.578   0.116   0.000   0.694
   97        1.584   3.633   0.000   5.217
   98        1.581   3.670   0.000   5.251
   99        1.584   3.633   0.000   5.217
  100        1.581   3.670   0.000   5.251
  101        1.584   3.633   0.000   5.217
  102        1.581   3.670   0.000   5.251
  103        1.582   3.639   0.000   5.221
  104        1.580   3.675   0.000   5.256
  105        1.582   3.639   0.000   5.221
  106        1.580   3.675   0.000   5.256
  107        1.582   3.639   0.000   5.221
  108        1.580   3.675   0.000   5.256
  109        1.584   3.633   0.000   5.217
  110        1.581   3.670   0.000   5.251
  111        1.584   3.633   0.000   5.217
  112        1.581   3.670   0.000   5.251
  113        1.584   3.633   0.000   5.217
  114        1.581   3.670   0.000   5.251
  115        1.582   3.639   0.000   5.221
  116        1.580   3.675   0.000   5.256
  117        1.582   3.639   0.000   5.221
  118        1.580   3.675   0.000   5.256
  119        1.582   3.639   0.000   5.221
  120        1.580   3.675   0.000   5.256
  121        1.584   3.633   0.000   5.217
  122        1.581   3.670   0.000   5.251
  123        1.584   3.633   0.000   5.217
  124        1.581   3.670   0.000   5.251
  125        1.584   3.633   0.000   5.217
  126        1.581   3.670   0.000   5.251
  127        1.582   3.639   0.000   5.221
  128        1.580   3.675   0.000   5.256
  129        1.582   3.639   0.000   5.221
  130        1.580   3.675   0.000   5.256
  131        1.582   3.639   0.000   5.221
  132        1.580   3.675   0.000   5.256
  133        1.584   3.633   0.000   5.217
  134        1.581   3.670   0.000   5.251
  135        1.584   3.633   0.000   5.217
  136        1.581   3.670   0.000   5.251
  137        1.584   3.633   0.000   5.217
  138        1.581   3.670   0.000   5.251
  139        1.582   3.639   0.000   5.221
  140        1.580   3.675   0.000   5.256
  141        1.582   3.639   0.000   5.221
  142        1.580   3.675   0.000   5.256
  143        1.582   3.639   0.000   5.221
  144        1.580   3.675   0.000   5.256
--------------------------------------------------
tot        130.870 186.292   0.000 317.162
 

 total amount of memory used by VASP MPI-rank0    69626. kBytes
=======================================================================

   base      :      30000. kBytes
   nonlr-proj:        617. kBytes
   fftplans  :      10983. kBytes
   grid      :      19058. kBytes
   one-center:         12. kBytes
   wavefun   :       8956. kBytes
 
  
  
 General timing and accounting informations for this job:
 ========================================================
  
                  Total CPU time used (sec):      117.146
                            User time (sec):      100.685
                          System time (sec):       16.461
                         Elapsed time (sec):      119.273
  
                   Maximum memory used (kb):      322588.
                   Average memory used (kb):           0.
  
                          Minor page faults:       115507
                          Major page faults:            0
                 Voluntary context switches:         6504
