 vasp.5.4.4.18Apr17-6-g9f103f2a35 (build Feb 03 2021 10:20:21) gamma-only       
  
 executed on             LinuxGNU date 2024.04.12  09:54:34
 running on   40 total cores
 distrk:  each k-point on   40 cores,    1 groups
 distr:  one band on NCORES_PER_BAND=  20 cores,    2 groups


--------------------------------------------------------------------------------------------------------


 INCAR:
 POTCAR:    PAW_PBE H 15Jun2001                   
 POTCAR:    PAW_PBE O 08Apr2002                   

 ----------------------------------------------------------------------------- 
|                                                                             |
|           W    W    AA    RRRRR   N    N  II  N    N   GGGG   !!!           |
|           W    W   A  A   R    R  NN   N  II  NN   N  G    G  !!!           |
|           W    W  A    A  R    R  N N  N  II  N N  N  G       !!!           |
|           W WW W  AAAAAA  RRRRR   N  N N  II  N  N N  G  GGG   !            |
|           WW  WW  A    A  R   R   N   NN  II  N   NN  G    G                |
|           W    W  A    A  R    R  N    N  II  N    N   GGGG   !!!           |
|                                                                             |
|      For optimal performance we recommend to set                            |
|        NCORE= 4 - approx SQRT( number of cores)                             |
|      NCORE specifies how many cores store one orbital (NPAR=cpu/NCORE).     |
|      This setting can  greatly improve the performance of VASP for DFT.     |
|      The default,   NCORE=1            might be grossly inefficient         |
|      on modern multi-core architectures or massively parallel machines.     |
|      Do your own testing !!!!                                               |
|      Unfortunately you need to use the default for GW and RPA calculations. |
|      (for HF NCORE is supported but not extensively tested yet)             |
|                                                                             |
 ----------------------------------------------------------------------------- 

 POTCAR:    PAW_PBE H 15Jun2001                   
  local pseudopotential read in
  atomic valenz-charges read in
  non local Contribution for L=           0  read in
    real space projection operators read in
  non local Contribution for L=           0  read in
    real space projection operators read in
  non local Contribution for L=           1  read in
    real space projection operators read in
    PAW grid and wavefunctions read in
 
   number of l-projection  operators is LMAX  =           3
   number of lm-projection operators is LMMAX =           5
 
 POTCAR:    PAW_PBE O 08Apr2002                   
  local pseudopotential read in
  partial core-charges read in
  partial kinetic energy density read in
  kinetic energy density of atom read in
  atomic valenz-charges read in
  non local Contribution for L=           0  read in
    real space projection operators read in
  non local Contribution for L=           0  read in
    real space projection operators read in
  non local Contribution for L=           1  read in
    real space projection operators read in
  non local Contribution for L=           1  read in
    real space projection operators read in
    PAW grid and wavefunctions read in
 
   number of l-projection  operators is LMAX  =           4
   number of lm-projection operators is LMMAX =           8
 
 Optimization of the real space projectors (new method)

 maximal supplied QI-value         = 34.20
 optimisation between [QCUT,QGAM] = [  9.92, 20.18] = [ 27.55,114.04] Ry 
 Optimized for a Real-space Cutoff    1.26 Angstroem

   l    n(q)    QCUT    max X(q) W(low)/X(q) W(high)/X(q)  e(spline) 
   0      8     9.919    19.460    0.50E-03    0.23E-03    0.29E-06
   0      8     9.919    12.209    0.48E-03    0.23E-03    0.28E-06
   1      7     9.919     4.655    0.17E-03    0.75E-03    0.30E-06
 Optimization of the real space projectors (new method)

 maximal supplied QI-value         = 24.76
 optimisation between [QCUT,QGAM] = [ 10.15, 20.30] = [ 28.85,115.39] Ry 
 Optimized for a Real-space Cutoff    1.38 Angstroem

   l    n(q)    QCUT    max X(q) W(low)/X(q) W(high)/X(q)  e(spline) 
   0      8    10.150    20.381    0.22E-03    0.32E-03    0.29E-06
   0      8    10.150    15.268    0.23E-03    0.35E-03    0.30E-06
   1      8    10.150     5.964    0.46E-03    0.53E-03    0.21E-06
   1      8    10.150     5.382    0.38E-03    0.45E-03    0.19E-06
  PAW_PBE H 15Jun2001                   :
 energy of atom  1       EATOM=  -12.4884
 kinetic energy error for atom=    0.0098 (will be added to EATOM!!)
  PAW_PBE O 08Apr2002                   :
 energy of atom  2       EATOM= -432.3788
 kinetic energy error for atom=    0.1156 (will be added to EATOM!!)
 
 
 POSCAR: bilayer_4                               
  positions in direct lattice
  velocities in cartesian coordinates
 exchange correlation table for  LEXCH =        8
   RHO(1)=    0.500       N(1)  =     2000
   RHO(2)=  100.500       N(2)  =     4000
 


--------------------------------------------------------------------------------------------------------


 ion  position               nearest neighbor table
   1  0.168  0.063  0.292- 195 1.00
   2  0.168  0.063  0.449- 196 1.00
   3  0.395  0.332  0.292- 199 1.00
   4  0.396  0.332  0.449- 200 1.00
   5  0.105  0.168  0.214- 211 1.00
   6  0.104  0.167  0.371- 212 1.00
   7  0.063  0.395  0.214- 215 1.00
   8  0.063  0.396  0.371- 216 1.00
   9  0.168  0.105  0.214- 211 1.00
  10  0.167  0.104  0.371- 212 1.00
  11  0.395  0.063  0.214- 207 1.00
  12  0.396  0.063  0.371- 208 1.00
  13  0.063  0.168  0.292- 203 1.00
  14  0.063  0.168  0.449- 204 1.00
  15  0.332  0.395  0.292- 199 1.00
  16  0.332  0.396  0.449- 200 1.00
  17  0.176  0.000  0.181- 193 0.98
  18  0.173  0.000  0.338- 194 0.98
  19  0.237  0.000  0.209- 193 1.04
  20  0.235  0.000  0.365- 194 1.03
  21  0.324  0.324  0.181- 197 0.98
  22  0.327  0.327  0.338- 198 0.98
  23  0.263  0.263  0.209- 197 1.04
  24  0.265  0.265  0.365- 198 1.03
  25  1.000  0.176  0.181- 201 0.98
  26  1.000  0.173  0.338- 202 0.98
  27  1.000  0.237  0.209- 201 1.04
  28  1.000  0.235  0.365- 202 1.03
  29  0.328  0.000  0.259- 205 0.98
  30  0.328  0.000  0.416- 206 0.98
  31  0.266  0.000  0.287- 205 1.03
  32  0.265  0.000  0.443- 206 1.04
  33  0.172  0.172  0.259- 209 0.98
  34  0.172  0.172  0.416- 210 0.98
  35  0.234  0.234  0.287- 209 1.03
  36  0.235  0.235  0.443- 210 1.04
  37  1.000  0.328  0.259- 213 0.98
  38  1.000  0.328  0.416- 214 0.98
  39  0.000  0.266  0.287- 213 1.03
  40  0.000  0.265  0.443- 214 1.04
  41  0.668  0.063  0.292- 219 1.00
  42  0.668  0.063  0.449- 220 1.00
  43  0.895  0.332  0.292- 223 1.00
  44  0.896  0.332  0.449- 224 1.00
  45  0.437  0.105  0.292- 227 1.00
  46  0.437  0.104  0.449- 228 1.00
  47  0.605  0.168  0.214- 235 1.00
  48  0.604  0.167  0.371- 236 1.00
  49  0.563  0.395  0.214- 239 1.00
  50  0.563  0.396  0.371- 240 1.00
  51  0.437  0.332  0.214- 239 1.00
  52  0.437  0.333  0.371- 240 1.00
  53  0.668  0.105  0.214- 235 1.00
  54  0.667  0.104  0.371- 236 1.00
  55  0.895  0.063  0.214- 231 1.00
  56  0.896  0.063  0.371- 232 1.00
  57  0.563  0.168  0.292- 227 1.00
  58  0.563  0.168  0.449- 228 1.00
  59  0.832  0.395  0.292- 223 1.00
  60  0.832  0.396  0.449- 224 1.00
  61  0.676  0.000  0.181- 217 0.98
  62  0.673  0.000  0.338- 218 0.98
  63  0.737  0.000  0.209- 217 1.04
  64  0.735  0.000  0.365- 218 1.03
  65  0.824  0.324  0.181- 221 0.98
  66  0.827  0.327  0.338- 222 0.98
  67  0.763  0.263  0.209- 221 1.04
  68  0.765  0.265  0.365- 222 1.03
  69  0.500  0.176  0.181- 225 0.98
  70  0.500  0.173  0.338- 226 0.98
  71  0.500  0.237  0.209- 225 1.04
  72  0.500  0.235  0.365- 226 1.03
  73  0.828  0.000  0.259- 229 0.98
  74  0.828  0.000  0.416- 230 0.98
  75  0.766  0.000  0.287- 229 1.03
  76  0.765  0.000  0.443- 230 1.04
  77  0.672  0.172  0.259- 233 0.98
  78  0.672  0.172  0.416- 234 0.98
  79  0.734  0.234  0.287- 233 1.03
  80  0.735  0.235  0.443- 234 1.04
  81  0.500  0.328  0.259- 237 0.98
  82  0.500  0.328  0.416- 238 0.98
  83  0.500  0.266  0.287- 237 1.03
  84  0.500  0.265  0.443- 238 1.04
  85  0.168  0.563  0.292- 243 1.00
  86  0.168  0.563  0.449- 244 1.00
  87  0.395  0.832  0.292- 247 1.00
  88  0.396  0.832  0.449- 248 1.00
  89  0.332  0.437  0.214- 255 1.00
  90  0.333  0.437  0.371- 256 1.00
  91  0.105  0.668  0.214- 259 1.00
  92  0.104  0.667  0.371- 260 1.00
  93  0.063  0.895  0.214- 263 1.00
  94  0.063  0.896  0.371- 264 1.00
  95  0.168  0.605  0.214- 259 1.00
  96  0.167  0.604  0.371- 260 1.00
  97  0.395  0.563  0.214- 255 1.00
  98  0.396  0.563  0.371- 256 1.00
  99  0.063  0.668  0.292- 251 1.00
 100  0.063  0.668  0.449- 252 1.00
 101  0.332  0.895  0.292- 247 1.00
 102  0.332  0.896  0.449- 248 1.00
 103  0.105  0.437  0.292- 243 1.00
 104  0.104  0.437  0.449- 244 1.00
 105  0.176  0.500  0.181- 241 0.98
 106  0.173  0.500  0.338- 242 0.98
 107  0.237  0.500  0.209- 241 1.04
 108  0.235  0.500  0.365- 242 1.03
 109  0.324  0.824  0.181- 245 0.98
 110  0.327  0.827  0.338- 246 0.98
 111  0.263  0.763  0.209- 245 1.04
 112  0.265  0.765  0.365- 246 1.03
 113  1.000  0.676  0.181- 249 0.98
 114  1.000  0.673  0.338- 250 0.98
 115  1.000  0.737  0.209- 249 1.04
 116  1.000  0.735  0.365- 250 1.03
 117  0.328  0.500  0.259- 253 0.98
 118  0.328  0.500  0.416- 254 0.98
 119  0.266  0.500  0.287- 253 1.03
 120  0.265  0.500  0.443- 254 1.04
 121  0.172  0.672  0.259- 257 0.98
 122  0.172  0.672  0.416- 258 0.98
 123  0.234  0.734  0.287- 257 1.03
 124  0.235  0.735  0.443- 258 1.04
 125  0.000  0.828  0.259- 261 0.98
 126  0.000  0.828  0.416- 262 0.98
 127  1.000  0.766  0.287- 261 1.03
 128  1.000  0.765  0.443- 262 1.04
 129  0.668  0.563  0.292- 267 1.00
 130  0.668  0.563  0.449- 268 1.00
 131  0.895  0.832  0.292- 271 1.00
 132  0.896  0.832  0.449- 272 1.00
 133  0.437  0.605  0.292- 275 1.00
 134  0.437  0.604  0.449- 276 1.00
 135  0.832  0.437  0.214- 279 1.00
 136  0.833  0.437  0.371- 280 1.00
 137  0.605  0.668  0.214- 283 1.00
 138  0.604  0.667  0.371- 284 1.00
 139  0.563  0.895  0.214- 287 1.00
 140  0.563  0.896  0.371- 288 1.00
 141  0.437  0.832  0.214- 287 1.00
 142  0.437  0.833  0.371- 288 1.00
 143  0.668  0.605  0.214- 283 1.00
 144  0.667  0.604  0.371- 284 1.00
 145  0.895  0.563  0.214- 279 1.00
 146  0.896  0.563  0.371- 280 1.00
 147  0.563  0.668  0.292- 275 1.00
 148  0.563  0.668  0.449- 276 1.00
 149  0.832  0.895  0.292- 271 1.00
 150  0.832  0.896  0.449- 272 1.00
 151  0.605  0.437  0.292- 267 1.00
 152  0.604  0.437  0.449- 268 1.00
 153  0.676  0.500  0.181- 265 0.98
 154  0.673  0.500  0.338- 266 0.98
 155  0.737  0.500  0.209- 265 1.04
 156  0.735  0.500  0.365- 266 1.03
 157  0.824  0.824  0.181- 269 0.98
 158  0.827  0.827  0.338- 270 0.98
 159  0.763  0.763  0.209- 269 1.04
 160  0.765  0.765  0.365- 270 1.03
 161  0.500  0.676  0.181- 273 0.98
 162  0.500  0.673  0.338- 274 0.98
 163  0.500  0.737  0.209- 273 1.04
 164  0.500  0.735  0.365- 274 1.03
 165  0.828  0.500  0.259- 277 0.98
 166  0.828  0.500  0.416- 278 0.98
 167  0.766  0.500  0.287- 277 1.03
 168  0.765  0.500  0.443- 278 1.04
 169  0.672  0.672  0.259- 281 0.98
 170  0.672  0.672  0.416- 282 0.98
 171  0.734  0.734  0.287- 281 1.03
 172  0.735  0.735  0.443- 282 1.04
 173  0.500  0.828  0.259- 285 0.98
 174  0.500  0.828  0.416- 286 0.98
 175  0.500  0.766  0.287- 285 1.03
 176  0.500  0.765  0.443- 286 1.04
 177  0.937  0.105  0.292- 203 1.00
 178  0.937  0.104  0.449- 204 1.00
 179  0.937  0.332  0.214- 215 1.00
 180  0.937  0.333  0.371- 216 1.00
 181  0.937  0.605  0.292- 251 1.00
 182  0.937  0.604  0.449- 252 1.00
 183  0.937  0.832  0.214- 263 1.00
 184  0.937  0.833  0.371- 264 1.00
 185  0.332  0.937  0.214- 207 1.00
 186  0.333  0.937  0.371- 208 1.00
 187  0.105  0.937  0.292- 195 1.00
 188  0.104  0.937  0.449- 196 1.00
 189  0.832  0.937  0.214- 231 1.00
 190  0.833  0.937  0.371- 232 1.00
 191  0.605  0.937  0.292- 219 1.00
 192  0.604  0.937  0.449- 220 1.00
 193  0.171  0.000  0.201-  17 0.98  19 1.04
 194  0.169  0.000  0.358-  18 0.98  20 1.03
 195  0.170  0.000  0.299- 187 1.00   1 1.00
 196  0.171  0.000  0.455- 188 1.00   2 1.00
 197  0.329  0.329  0.201-  21 0.98  23 1.04
 198  0.331  0.331  0.358-  22 0.98  24 1.03
 199  0.330  0.330  0.299-  15 1.00   3 1.00
 200  0.329  0.329  0.455-  16 1.00   4 1.00
 201  0.000  0.171  0.201-  25 0.98  27 1.04
 202  0.000  0.169  0.358-  26 0.98  28 1.03
 203  0.000  0.170  0.299-  13 1.00 177 1.00
 204  0.000  0.171  0.455-  14 1.00 178 1.00
 205  0.331  0.000  0.279-  29 0.98  31 1.03
 206  0.331  0.000  0.436-  30 0.98  32 1.04
 207  0.331  0.000  0.221-  11 1.00 185 1.00
 208  0.330  0.000  0.378-  12 1.00 186 1.00
 209  0.169  0.169  0.279-  33 0.98  35 1.03
 210  0.169  0.169  0.436-  34 0.98  36 1.04
 211  0.169  0.169  0.221-   9 1.00   5 1.00
 212  0.170  0.170  0.378-  10 1.00   6 1.00
 213  1.000  0.331  0.279-  37 0.98  39 1.03
 214  1.000  0.331  0.436-  38 0.98  40 1.04
 215  1.000  0.331  0.221-   7 1.00 179 1.00
 216  1.000  0.330  0.378-   8 1.00 180 1.00
 217  0.671  0.000  0.201-  61 0.98  63 1.04
 218  0.669  0.000  0.358-  62 0.98  64 1.03
 219  0.670  0.000  0.299- 191 1.00  41 1.00
 220  0.671  0.000  0.455- 192 1.00  42 1.00
 221  0.829  0.329  0.201-  65 0.98  67 1.04
 222  0.831  0.331  0.358-  66 0.98  68 1.03
 223  0.830  0.330  0.299-  59 1.00  43 1.00
 224  0.829  0.329  0.455-  60 1.00  44 1.00
 225  0.500  0.171  0.201-  69 0.98  71 1.04
 226  0.500  0.169  0.358-  70 0.98  72 1.03
 227  0.500  0.170  0.299-  57 1.00  45 1.00
 228  0.500  0.171  0.455-  58 1.00  46 1.00
 229  0.831  0.000  0.279-  73 0.98  75 1.03
 230  0.831  0.000  0.436-  74 0.98  76 1.04
 231  0.831  0.000  0.221-  55 1.00 189 1.00
 232  0.830  0.000  0.378-  56 1.00 190 1.00
 233  0.669  0.169  0.279-  77 0.98  79 1.03
 234  0.669  0.169  0.436-  78 0.98  80 1.04
 235  0.669  0.169  0.221-  53 1.00  47 1.00
 236  0.670  0.170  0.378-  54 1.00  48 1.00
 237  0.500  0.331  0.279-  81 0.98  83 1.03
 238  0.500  0.331  0.436-  82 0.98  84 1.04
 239  0.500  0.331  0.221-  49 1.00  51 1.00
 240  0.500  0.330  0.378-  50 1.00  52 1.00
 241  0.171  0.500  0.201- 105 0.98 107 1.04
 242  0.169  0.500  0.358- 106 0.98 108 1.03
 243  0.170  0.500  0.299- 103 1.00  85 1.00
 244  0.171  0.500  0.455- 104 1.00  86 1.00
 245  0.329  0.829  0.201- 109 0.98 111 1.04
 246  0.331  0.831  0.358- 110 0.98 112 1.03
 247  0.330  0.830  0.299-  87 1.00 101 1.00
 248  0.329  0.829  0.455-  88 1.00 102 1.00
 249  1.000  0.671  0.201- 113 0.98 115 1.04
 250  1.000  0.669  0.358- 114 0.98 116 1.03
 251  0.000  0.670  0.299-  99 1.00 181 1.00
 252  0.000  0.671  0.455- 100 1.00 182 1.00
 253  0.331  0.500  0.279- 117 0.98 119 1.03
 254  0.331  0.500  0.436- 118 0.98 120 1.04
 255  0.331  0.500  0.221-  89 1.00  97 1.00
 256  0.330  0.500  0.378-  90 1.00  98 1.00
 257  0.169  0.669  0.279- 121 0.98 123 1.03
 258  0.169  0.669  0.436- 122 0.98 124 1.04
 259  0.169  0.669  0.221-  91 1.00  95 1.00
 260  0.170  0.670  0.378-  92 1.00  96 1.00
 261  0.000  0.831  0.279- 125 0.98 127 1.03
 262  0.000  0.831  0.436- 126 0.98 128 1.04
 263  0.000  0.831  0.221- 183 1.00  93 1.00
 264  0.000  0.830  0.378- 184 1.00  94 1.00
 265  0.671  0.500  0.201- 153 0.98 155 1.04
 266  0.669  0.500  0.358- 154 0.98 156 1.03
 267  0.670  0.500  0.299- 129 1.00 151 1.00
 268  0.671  0.500  0.455- 130 1.00 152 1.00
 269  0.829  0.829  0.201- 157 0.98 159 1.04
 270  0.831  0.831  0.358- 158 0.98 160 1.03
 271  0.830  0.830  0.299- 131 1.00 149 1.00
 272  0.829  0.829  0.455- 132 1.00 150 1.00
 273  0.500  0.671  0.201- 161 0.98 163 1.04
 274  0.500  0.669  0.358- 162 0.98 164 1.03
 275  0.500  0.670  0.299- 133 1.00 147 1.00
 276  0.500  0.671  0.455- 134 1.00 148 1.00
 277  0.831  0.500  0.279- 165 0.98 167 1.03
 278  0.831  0.500  0.436- 166 0.98 168 1.04
 279  0.831  0.500  0.221- 135 1.00 145 1.00
 280  0.830  0.500  0.378- 136 1.00 146 1.00
 281  0.669  0.669  0.279- 169 0.98 171 1.03
 282  0.669  0.669  0.436- 170 0.98 172 1.04
 283  0.669  0.669  0.221- 137 1.00 143 1.00
 284  0.670  0.670  0.378- 138 1.00 144 1.00
 285  0.500  0.831  0.279- 173 0.98 175 1.03
 286  0.500  0.831  0.436- 174 0.98 176 1.04
 287  0.500  0.831  0.221- 141 1.00 139 1.00
 288  0.500  0.830  0.378- 142 1.00 140 1.00
 
  LATTYP: Found a hexagonal cell.
 ALAT       =    14.6976995468
 C/A-ratio  =     3.3474899354
  
  Lattice vectors:
  
 A1 = (  14.6976995468,   0.0000000000,   0.0000000000)
 A2 = (  -7.3488497734,  12.7285811847,   0.0000000000)
 A3 = (   0.0000000000,   0.0000000000,  49.2004013062)


Analysis of symmetry for initial positions (statically):
=====================================================================
 Subroutine PRICEL returns following result:
 
  LATTYP: Found a hexagonal cell.
 ALAT       =     7.3488496637
 C/A-ratio  =     6.6949799707
  
  Lattice vectors:
  
 A1 = (   7.3488497729,   0.0000000000,   0.0000000000)
 A2 = (  -3.6744247772,   6.3642904027,   0.0000000000)
 A3 = (   0.0000000000,   0.0000000000,  49.2004013062)
 
   4 primitive cells build up your supercell.
 

 Routine SETGRP: Setting up the symmetry group for a 
 hexagonal supercell.


 Subroutine GETGRP returns: Found  6 space group operations
 (whereof  6 operations were pure point group operations)
 out of a pool of 24 trial point group operations.


The static configuration has the point symmetry C_3v.


Analysis of symmetry for dynamics (positions and initial velocities):
=====================================================================
 Subroutine PRICEL returns following result:
 
  LATTYP: Found a hexagonal cell.
 ALAT       =     7.3488496637
 C/A-ratio  =     6.6949799707
  
  Lattice vectors:
  
 A1 = (   7.3488497729,   0.0000000000,   0.0000000000)
 A2 = (  -3.6744247772,   6.3642904027,   0.0000000000)
 A3 = (   0.0000000000,   0.0000000000,  49.2004013062)
 
   4 primitive cells build up your supercell.
 

 Routine SETGRP: Setting up the symmetry group for a 
 hexagonal supercell.


 Subroutine GETGRP returns: Found  6 space group operations
 (whereof  6 operations were pure point group operations)
 out of a pool of 24 trial point group operations.


The dynamic configuration has the point symmetry C_3v.


 Subroutine INISYM returns: Found  6 space group operations
 (whereof  6 operations are pure point group operations),
 and found     4 'primitive' translations

 
 
 KPOINTS: automatic mesh                          

Automatic generation of k-mesh.
Space group operators:
 irot       det(A)        alpha          n_x          n_y          n_z        tau_x        tau_y        tau_z
    1     1.000000     0.000000     1.000000     0.000000     0.000000     0.000000     0.000000     0.000000
    2     1.000000   120.000000     0.000000     0.000000    -1.000000     0.000000     0.000000     0.000000
    3     1.000000   120.000000     0.000000     0.000000     1.000000     0.000000     0.000000     0.000000
    4    -1.000000   180.000000     0.866025    -0.500000     0.000000     0.000000     0.000000     0.000000
    5    -1.000000   180.000000     0.000000     1.000000     0.000000     0.000000     0.000000     0.000000
    6    -1.000000   180.000000     0.866025     0.500000     0.000000     0.000000     0.000000     0.000000
 
 Subroutine IBZKPT returns following result:
 ===========================================
 
 Found      1 irreducible k-points:
 
 Following reciprocal coordinates:
            Coordinates               Weight
  0.000000  0.000000  0.000000      1.000000
 
 Following cartesian coordinates:
            Coordinates               Weight
  0.000000  0.000000  0.000000      1.000000
 


--------------------------------------------------------------------------------------------------------




 Dimension of arrays:
   k-points           NKPTS =      1   k-points in BZ     NKDIM =      1   number of bands    NBANDS=    530
   number of dos      NEDOS =    301   number of ions     NIONS =    288
   non local maximal  LDIM  =      4   non local SUM 2l+1 LMDIM =      8
   total plane-waves  NPLWV = ******
   max r-space proj   IRMAX =   1601   max aug-charges    IRDMAX=   2026
   dimension x,y,z NGX =    72 NGY =   72 NGZ =  250
   dimension x,y,z NGXF=   144 NGYF=  144 NGZF=  500
   support grid    NGXF=   144 NGYF=  144 NGZF=  500
   ions per type =             192  96
   NGX,Y,Z   is equivalent  to a cutoff of   8.14,  8.14,  8.45 a.u.
   NGXF,Y,Z  is equivalent  to a cutoff of  16.29, 16.29, 16.89 a.u.

 SYSTEM =  ice                                     
 POSCAR =  bilayer_4                               

 Startparameter for this run:
   NWRITE =      0    write-flag & timer
   PREC   = normal    normal or accurate (medium, high low for compatibility)
   ISTART =      0    job   : 0-new  1-cont  2-samecut
   ICHARG =      1    charge: 1-file 2-atom 10-const
   ISPIN  =      1    spin polarized calculation?
   LNONCOLLINEAR =      F non collinear calculations
   LSORBIT =      F    spin-orbit coupling
   INIWAV =      1    electr: 0-lowe 1-rand  2-diag
   LASPH  =      F    aspherical Exc in radial PAW
   METAGGA=      F    non-selfconsistent MetaGGA calc.

 Electronic Relaxation 1
   ENCUT  =  400.0 eV  29.40 Ry    5.42 a.u.  23.97 23.97 80.23*2*pi/ulx,y,z
   ENINI  =  400.0     initial cutoff
   ENAUG  =  605.4 eV  augmentation charge cutoff
   NELM   =    500;   NELMIN=  4; NELMDL=  0     # of ELM steps 
   EDIFF  = 0.1E-05   stopping-criterion for ELM
   LREAL  =      T    real-space projection
   NLSPLINE    = F    spline interpolate recip. space projectors
   LCOMPAT=      F    compatible to vasp.4.4
   GGA_COMPAT  = T    GGA compatible to vasp.4.4-vasp.4.6
   LMAXPAW     = -100 max onsite density
   LMAXMIX     =    2 max onsite mixed and CHGCAR
   VOSKOWN=      0    Vosko Wilk Nusair interpolation
   ROPT   =   -0.00050  -0.00050
 Ionic relaxation
   EDIFFG = 0.1E-04   stopping-criterion for IOM
   NSW    =      0    number of steps for IOM
   NBLOCK =      1;   KBLOCK =      1    inner block; outer block 
   IBRION =     -1    ionic relax: 0-MD 1-quasi-New 2-CG
   NFREE  =      0    steps in history (QN), initial steepest desc. (CG)
   ISIF   =      2    stress and relaxation
   IWAVPR =     10    prediction:  0-non 1-charg 2-wave 3-comb
   ISYM   =      2    0-nonsym 1-usesym 2-fastsym
   LCORR  =      T    Harris-Foulkes like correction to forces

   POTIM  = 0.5000    time-step for ionic-motion
   TEIN   =    0.0    initial temperature
   TEBEG  =    0.0;   TEEND  =   0.0 temperature during run
   SMASS  =  -3.00    Nose mass-parameter (am)
   estimated Nose-frequenzy (Omega)   =  0.10E-29 period in steps =****** mass=  -0.494E-26a.u.
   SCALEE = 1.0000    scale energy and forces
   NPACO  =    256;   APACO  = 16.0  distance and # of slots for P.C.
   PSTRESS=    0.0 pullay stress

  Mass of Ions in am
   POMASS =   1.00 16.00
  Ionic Valenz
   ZVAL   =   1.00  6.00
  Atomic Wigner-Seitz radii
   RWIGS  =  -1.00 -1.00
  virtual crystal weights 
   VCA    =   1.00  1.00
   NELECT =     768.0000    total number of electrons
   NUPDOWN=      -1.0000    fix difference up-down

 DOS related values:
   EMIN   =  10.00;   EMAX   =-10.00  energy-range for DOS
   EFERMI =   0.00
   ISMEAR =    -1;   SIGMA  =   0.05  broadening in eV -4-tet -1-fermi 0-gaus

 Electronic relaxation 2 (details)
   IALGO  =     68    algorithm
   LDIAG  =      T    sub-space diagonalisation (order eigenvalues)
   LSUBROT=      F    optimize rotation matrix (better conditioning)
   TURBO    =      0    0=normal 1=particle mesh
   IRESTART =      0    0=no restart 2=restart with 2 vectors
   NREBOOT  =      0    no. of reboots
   NMIN     =      0    reboot dimension
   EREF     =   0.00    reference energy to select bands
   IMIX   =      4    mixing-type and parameters
     AMIX     =   0.40;   BMIX     =  1.00
     AMIX_MAG =   1.60;   BMIX_MAG =  1.00
     AMIN     =   0.10
     WC   =   100.;   INIMIX=   1;  MIXPRE=   1;  MAXMIX=  40

 Intra band minimization:
   WEIMIN = 0.0000     energy-eigenvalue tresh-hold
   EBREAK =  0.47E-09  absolut break condition
   DEPER  =   0.30     relativ break condition  

   TIME   =   0.40     timestep for ELM

  volume/ion in A,a.u.               =      31.96       215.68
  Fermi-wavevector in a.u.,A,eV,Ry     =   0.715368  1.351849  6.962791  0.511751
  Thomas-Fermi vector in A             =   1.803510
 
 Write flags
   LWAVE        =      F    write WAVECAR
   LDOWNSAMPLE  =      F    k-point downsampling of WAVECAR
   LCHARG       =      T    write CHGCAR
   LVTOT        =      F    write LOCPOT, total local potential
   LVHAR        =      T    write LOCPOT, Hartree potential only
   LELF         =      F    write electronic localiz. function (ELF)
   LORBIT       =     11    0 simple, 1 ext, 2 COOP (PROOUT), +10 PAW based schemes


 Dipole corrections
   LMONO  =      F    monopole corrections only (constant potential shift)
   LDIPOL =      T    correct potential (dipole corrections)
   IDIPOL =      3    1-x, 2-y, 3-z, 4-all directions 
   EPSILON=  1.0000000 bulk dielectric constant

 Exchange correlation treatment:
   GGA     =    --    GGA type
   LEXCH   =     8    internal setting for exchange type
   VOSKOWN=      0    Vosko Wilk Nusair interpolation
   LHFCALC =     F    Hartree Fock is set to
   LHFONE  =     F    Hartree Fock one center treatment
   AEXX    =    0.0000 exact exchange contribution

 Linear response parameters
   LEPSILON=     F    determine dielectric tensor
   LRPA    =     F    only Hartree local field effects (RPA)
   LNABLA  =     F    use nabla operator in PAW spheres
   LVEL    =     F    velocity operator in full k-point grid
   LINTERFAST=   F  fast interpolation
   KINTER  =     0    interpolate to denser k-point grid
   CSHIFT  =0.1000    complex shift for real part using Kramers Kronig
   OMEGAMAX=  -1.0    maximum frequency
   DEG_THRESHOLD= 0.2000000E-02 threshold for treating states as degnerate
   RTIME   =   -0.100 relaxation time in fs
  (WPLASMAI=    0.000 imaginary part of plasma frequency in eV, 0.658/RTIME)
   DFIELD  = 0.0000000 0.0000000 0.0000000 field for delta impulse in time
 
 Orbital magnetization related:
   ORBITALMAG=     F  switch on orbital magnetization
   LCHIMAG   =     F  perturbation theory with respect to B field
   DQ        =  0.001000  dq finite difference perturbation B field
   LLRAUG    =     F  two centre corrections for induced B field



--------------------------------------------------------------------------------------------------------


 Static calculation
 charge density and potential will be updated during run
 non-spin polarized calculation
 RMM-DIIS sequential band-by-band and
  variant of blocked Davidson during initial phase
 perform sub-space diagonalisation
    before iterative eigenvector-optimisation
 modified Broyden-mixing scheme, WC =      100.0
 initial mixing is a Kerker type mixing with AMIX =  0.4000 and BMIX =      1.0000
 Hartree-type preconditioning will be used
 using additional bands          146
 real space projection scheme for non local part
 use partial core corrections
 calculate Harris-corrections to forces 
   (improved forces if not selfconsistent)
 use gradient corrections 
 use of overlap-Matrix (Vanderbilt PP)
 Fermi-smearing in eV        SIGMA  =   0.05


--------------------------------------------------------------------------------------------------------


  energy-cutoff  :      400.00
  volume of cell :     9204.45
      direct lattice vectors                 reciprocal lattice vectors
    14.697699547  0.000000000  0.000000000     0.068037858  0.039281676  0.000000000
    -7.348849773 12.728581185  0.000000000     0.000000000  0.078563352  0.000000000
     0.000000000  0.000000000 49.200401306     0.000000000  0.000000000  0.020325037

  length of vectors
    14.697699547 14.697699547 49.200401306     0.078563352  0.078563352  0.020325037


 
 k-points in units of 2pi/SCALE and weight: automatic mesh                          
   0.00000000  0.00000000  0.00000000       1.000
 
 k-points in reciprocal lattice and weights: automatic mesh                          
   0.00000000  0.00000000  0.00000000       1.000
 
 position of ions in fractional coordinates (direct lattice) 
   0.16779934  0.06290048  0.29247593
   0.16766276  0.06329506  0.44867172
   0.39510114  0.33220067  0.29247593
   0.39563231  0.33233726  0.44867172
   0.10456545  0.16751355  0.21398050
   0.10446672  0.16745692  0.37092314
   0.06294810  0.39543456  0.21398050
   0.06299020  0.39553329  0.37092314
   0.16751354  0.10456545  0.21398050
   0.16745691  0.10446672  0.37092314
   0.39543453  0.06294810  0.21398050
   0.39553326  0.06299020  0.37092314
   0.06290049  0.16779936  0.29247593
   0.06329507  0.16766277  0.44867172
   0.33220067  0.39510114  0.29247593
   0.33233726  0.39563231  0.44867172
   0.17631399  0.00000000  0.18107444
   0.17309869  0.00000000  0.33770998
   0.23696641  0.00000000  0.20856881
   0.23474960  0.00000000  0.36524684
   0.32368600  0.32368600  0.18107444
   0.32690129  0.32690129  0.33770998
   0.26303360  0.26303360  0.20856881
   0.26525042  0.26525042  0.36524684
   1.00000000  0.17631399  0.18107444
   1.00000000  0.17309869  0.33770998
   1.00000000  0.23696641  0.20856881
   1.00000000  0.23474960  0.36524684
   0.32763791  0.00000000  0.25918789
   0.32789187  0.00000000  0.41560599
   0.26565840  0.00000000  0.28667991
   0.26522219  0.00000000  0.44315258
   0.17236206  0.17236208  0.25918789
   0.17210810  0.17210812  0.41560599
   0.23434160  0.23434160  0.28667991
   0.23477781  0.23477781  0.44315258
   1.00000000  0.32763791  0.25918789
   1.00000000  0.32789187  0.41560599
   0.00000000  0.26565840  0.28667991
   0.00000000  0.26522219  0.44315258
   0.66779933  0.06290048  0.29247593
   0.66766274  0.06329506  0.44867172
   0.89510114  0.33220067  0.29247593
   0.89563231  0.33233726  0.44867172
   0.43709954  0.10489887  0.29247593
   0.43670495  0.10436770  0.44867172
   0.60456538  0.16751355  0.21398050
   0.60446665  0.16745692  0.37092314
   0.56294805  0.39543456  0.21398050
   0.56299015  0.39553329  0.37092314
   0.43705192  0.33248648  0.21398050
   0.43700982  0.33254311  0.37092314
   0.66751355  0.10456545  0.21398050
   0.66745692  0.10446672  0.37092314
   0.89543456  0.06294810  0.21398050
   0.89553329  0.06299020  0.37092314
   0.56290046  0.16779936  0.29247593
   0.56329505  0.16766277  0.44867172
   0.83220061  0.39510114  0.29247593
   0.83233720  0.39563231  0.44867172
   0.67631397  0.00000000  0.18107444
   0.67309868  0.00000000  0.33770998
   0.73696646  0.00000000  0.20856881
   0.73474964  0.00000000  0.36524684
   0.82368597  0.32368600  0.18107444
   0.82690126  0.32690129  0.33770998
   0.76303360  0.26303360  0.20856881
   0.76525042  0.26525042  0.36524684
   0.50000000  0.17631399  0.18107444
   0.50000000  0.17309869  0.33770998
   0.50000000  0.23696641  0.20856881
   0.50000000  0.23474960  0.36524684
   0.82763791  0.00000000  0.25918789
   0.82789187  0.00000000  0.41560599
   0.76565840  0.00000000  0.28667991
   0.76522219  0.00000000  0.44315258
   0.67236203  0.17236208  0.25918789
   0.67210807  0.17210812  0.41560599
   0.73434160  0.23434160  0.28667991
   0.73477781  0.23477781  0.44315258
   0.50000000  0.32763791  0.25918789
   0.50000000  0.32789187  0.41560599
   0.50000000  0.26565840  0.28667991
   0.50000000  0.26522219  0.44315258
   0.16779936  0.56290052  0.29247593
   0.16766277  0.56329511  0.44867172
   0.39510117  0.83220067  0.29247593
   0.39563234  0.83233726  0.44867172
   0.33248645  0.43705189  0.21398050
   0.33254308  0.43700979  0.37092314
   0.10456546  0.66751355  0.21398050
   0.10446674  0.66745692  0.37092314
   0.06294812  0.89543462  0.21398050
   0.06299022  0.89553335  0.37092314
   0.16751357  0.60456544  0.21398050
   0.16745694  0.60446671  0.37092314
   0.39543459  0.56294811  0.21398050
   0.39553332  0.56299021  0.37092314
   0.06290049  0.66779939  0.29247593
   0.06329508  0.66766280  0.44867172
   0.33220067  0.89510120  0.29247593
   0.33233726  0.89563237  0.44867172
   0.10489885  0.43709951  0.29247593
   0.10436768  0.43670492  0.44867172
   0.17631399  0.50000000  0.18107444
   0.17309869  0.50000000  0.33770998
   0.23696641  0.50000000  0.20856881
   0.23474960  0.50000000  0.36524684
   0.32368603  0.82368603  0.18107444
   0.32690132  0.82690132  0.33770998
   0.26303360  0.76303360  0.20856881
   0.26525042  0.76525042  0.36524684
   1.00000000  0.67631403  0.18107444
   1.00000000  0.67309874  0.33770998
   1.00000000  0.73696646  0.20856881
   1.00000000  0.73474964  0.36524684
   0.32763794  0.50000000  0.25918789
   0.32789190  0.50000000  0.41560599
   0.26565843  0.50000000  0.28667991
   0.26522222  0.50000000  0.44315258
   0.17236209  0.67236209  0.25918789
   0.17210813  0.67210813  0.41560599
   0.23434160  0.73434166  0.28667991
   0.23477781  0.73477787  0.44315258
   0.00000000  0.82763797  0.25918789
   0.00000000  0.82789193  0.41560599
   1.00000000  0.76565840  0.28667991
   1.00000000  0.76522219  0.44315258
   0.66779939  0.56290052  0.29247593
   0.66766280  0.56329511  0.44867172
   0.89510114  0.83220067  0.29247593
   0.89563231  0.83233726  0.44867172
   0.43709957  0.60489886  0.29247593
   0.43670498  0.60436769  0.44867172
   0.83248645  0.43705189  0.21398050
   0.83254308  0.43700979  0.37092314
   0.60456544  0.66751355  0.21398050
   0.60446671  0.66745692  0.37092314
   0.56294811  0.89543462  0.21398050
   0.56299021  0.89553335  0.37092314
   0.43705195  0.83248651  0.21398050
   0.43700985  0.83254314  0.37092314
   0.66751355  0.60456544  0.21398050
   0.66745692  0.60446671  0.37092314
   0.89543462  0.56294811  0.21398050
   0.89553335  0.56299021  0.37092314
   0.56290052  0.66779939  0.29247593
   0.56329511  0.66766280  0.44867172
   0.83220067  0.89510120  0.29247593
   0.83233726  0.89563237  0.44867172
   0.60489880  0.43709951  0.29247593
   0.60436763  0.43670492  0.44867172
   0.67631397  0.50000000  0.18107444
   0.67309868  0.50000000  0.33770998
   0.73696646  0.50000000  0.20856881
   0.73474964  0.50000000  0.36524684
   0.82368603  0.82368603  0.18107444
   0.82690132  0.82690132  0.33770998
   0.76303360  0.76303360  0.20856881
   0.76525042  0.76525042  0.36524684
   0.50000000  0.67631403  0.18107444
   0.50000000  0.67309874  0.33770998
   0.50000000  0.73696646  0.20856881
   0.50000000  0.73474964  0.36524684
   0.82763791  0.50000000  0.25918789
   0.82789187  0.50000000  0.41560599
   0.76565840  0.50000000  0.28667991
   0.76522219  0.50000000  0.44315258
   0.67236209  0.67236209  0.25918789
   0.67210813  0.67210813  0.41560599
   0.73434166  0.73434166  0.28667991
   0.73477787  0.73477787  0.44315258
   0.50000000  0.82763797  0.25918789
   0.50000000  0.82789193  0.41560599
   0.50000000  0.76565840  0.28667991
   0.50000000  0.76522219  0.44315258
   0.93709948  0.10489887  0.29247593
   0.93670489  0.10436770  0.44867172
   0.93705189  0.33248648  0.21398050
   0.93700979  0.33254311  0.37092314
   0.93709954  0.60489886  0.29247593
   0.93670495  0.60436769  0.44867172
   0.93705189  0.83248651  0.21398050
   0.93700979  0.83254314  0.37092314
   0.33248648  0.93705189  0.21398050
   0.33254311  0.93700979  0.37092314
   0.10489888  0.93709954  0.29247593
   0.10436771  0.93670495  0.44867172
   0.83248645  0.93705189  0.21398050
   0.83254308  0.93700979  0.37092314
   0.60489886  0.93709954  0.29247593
   0.60436769  0.93670495  0.44867172
   0.17100747  0.00000000  0.20086084
   0.16925574  0.00000000  0.35767582
   0.17019054  0.00000000  0.29939588
   0.17131695  0.00000000  0.45469123
   0.32899252  0.32899252  0.20086084
   0.33074425  0.33074425  0.35767582
   0.32980945  0.32980945  0.29939588
   0.32868304  0.32868304  0.45469123
   0.00000000  0.17100747  0.20086084
   0.00000000  0.16925574  0.35767582
   0.00000000  0.17019054  0.29939588
   0.00000000  0.17131695  0.45469123
   0.33120639  0.00000000  0.27915391
   0.33133018  0.00000000  0.43559246
   0.33079565  0.00000000  0.22112433
   0.33032887  0.00000000  0.37785403
   0.16879362  0.16879362  0.27915391
   0.16866983  0.16866983  0.43559246
   0.16920432  0.16920432  0.22112433
   0.16967110  0.16967110  0.37785403
   1.00000000  0.33120636  0.27915391
   1.00000000  0.33133015  0.43559246
   1.00000000  0.33079568  0.22112433
   1.00000000  0.33032890  0.37785403
   0.67100748  0.00000000  0.20086084
   0.66925575  0.00000000  0.35767582
   0.67019058  0.00000000  0.29939588
   0.67131699  0.00000000  0.45469123
   0.82899252  0.32899252  0.20086084
   0.83074425  0.33074425  0.35767582
   0.82980942  0.32980945  0.29939588
   0.82868301  0.32868304  0.45469123
   0.50000000  0.17100747  0.20086084
   0.50000000  0.16925574  0.35767582
   0.50000000  0.17019054  0.29939588
   0.50000000  0.17131695  0.45469123
   0.83120633  0.00000000  0.27915391
   0.83133012  0.00000000  0.43559246
   0.83079565  0.00000000  0.22112433
   0.83032887  0.00000000  0.37785403
   0.66879361  0.16879362  0.27915391
   0.66866982  0.16866983  0.43559246
   0.66920435  0.16920432  0.22112433
   0.66967113  0.16967110  0.37785403
   0.50000000  0.33120636  0.27915391
   0.50000000  0.33133015  0.43559246
   0.50000000  0.33079568  0.22112433
   0.50000000  0.33032890  0.37785403
   0.17100747  0.50000000  0.20086084
   0.16925574  0.50000000  0.35767582
   0.17019054  0.50000000  0.29939588
   0.17131695  0.50000000  0.45469123
   0.32899258  0.82899258  0.20086084
   0.33074431  0.83074431  0.35767582
   0.32980945  0.82980942  0.29939588
   0.32868304  0.82868301  0.45469123
   1.00000000  0.67100748  0.20086084
   1.00000000  0.66925575  0.35767582
   0.00000000  0.67019058  0.29939588
   0.00000000  0.67131699  0.45469123
   0.33120639  0.50000000  0.27915391
   0.33133018  0.50000000  0.43559246
   0.33079568  0.50000000  0.22112433
   0.33032890  0.50000000  0.37785403
   0.16879364  0.66879367  0.27915391
   0.16866985  0.66866988  0.43559246
   0.16920431  0.66920435  0.22112433
   0.16967109  0.66967113  0.37785403
   0.00000000  0.83120639  0.27915391
   0.00000000  0.83133018  0.43559246
   0.00000000  0.83079565  0.22112433
   0.00000000  0.83032887  0.37785403
   0.67100742  0.50000000  0.20086084
   0.66925569  0.50000000  0.35767582
   0.67019058  0.50000000  0.29939588
   0.67131699  0.50000000  0.45469123
   0.82899252  0.82899258  0.20086084
   0.83074425  0.83074431  0.35767582
   0.82980942  0.82980942  0.29939588
   0.82868301  0.82868301  0.45469123
   0.50000000  0.67100748  0.20086084
   0.50000000  0.66925575  0.35767582
   0.50000000  0.67019058  0.29939588
   0.50000000  0.67131699  0.45469123
   0.83120633  0.50000000  0.27915391
   0.83133012  0.50000000  0.43559246
   0.83079565  0.50000000  0.22112433
   0.83032887  0.50000000  0.37785403
   0.66879361  0.66879367  0.27915391
   0.66866982  0.66866988  0.43559246
   0.66920435  0.66920435  0.22112433
   0.66967113  0.66967113  0.37785403
   0.50000006  0.83120639  0.27915391
   0.50000006  0.83133018  0.43559246
   0.50000000  0.83079565  0.22112433
   0.50000000  0.83032887  0.37785403
 
 position of ions in cartesian coordinates  (Angst):
   2.00401813  0.80063385 14.38993294
   1.99911088  0.80565637 22.07482882
   3.36578497  4.22844324 14.38993294
   3.37258822  4.23018179 22.07482882
   0.30583964  2.13220984 10.52792661
   0.30480470  2.13148903 18.24956728
  -1.98079687  5.03332087 10.52792661
  -1.98090365  5.03457756 18.24956728
   1.69362785  1.33096982 10.52792661
   1.69352107  1.32971313 18.24956728
   5.34938174  0.80124002 10.52792661
   5.35052345  0.80177590 18.24956728
  -0.30863981  2.13584773 14.38993294
  -0.30183656  2.13410918 22.07482882
   1.97904678  5.02907691 14.38993294
   1.97715078  5.03583796 22.07482882
   2.59141003  0.00000000  8.90893508
   2.54415254  0.00000000 16.61546672
   3.48286112  0.00000000 10.26166917
   3.45027908  0.00000000 17.97029123
   2.37871976  4.12006349  8.90893508
   2.40234851  4.16098967 16.61546672
   1.93299443  3.34804457 10.26166917
   1.94928546  3.37626145 17.97029123
  13.40199453  2.24422692  8.90893508
  13.42562327  2.20330073 16.61546672
  12.95626898  3.01624621 10.26166917
  12.97256001  2.98802933 17.97029123
   4.81552353  0.00000000 12.75214839
   4.81925617  0.00000000 20.44798143
   3.90456738  0.00000000 14.10476659
   3.89815603  0.00000000 21.80328502
   1.26666279  2.19392469 12.75214839
   1.26479647  2.19069213 20.44798143
   1.72214120  2.98283605 14.10476659
   1.72534687  2.98838845 21.80328502
  12.28993778  4.17036571 12.75214839
  12.28807146  4.17359827 20.44798143
  -1.95228369  3.38145454 14.10476659
  -1.94907801  3.37590215 21.80328502
   9.35286769  0.80063385 14.38993294
   9.34796044  0.80565637 22.07482882
  10.71463474  4.22844324 14.38993294
  10.72143799  4.23018179 22.07482882
   5.65347161  1.33521378 14.38993294
   5.65157561  1.32845272 22.07482882
   7.65468843  2.13220984 10.52792661
   7.65365349  2.13148903 18.24956728
   5.36805213  5.03332087 10.52792661
   5.36794536  5.03457756 18.24956728
   3.98026464  4.23208113 10.52792661
   3.97922970  4.23280195 18.24956728
   9.04247784  1.33096982 10.52792661
   9.04237107  1.32971313 18.24956728
  12.69823195  0.80124002 10.52792661
  12.69937366  0.80177590 18.24956728
   7.04020963  2.13584773 14.38993294
   7.04701288  2.13410918 22.07482882
   9.32789568  5.02907691 14.38993294
   9.32599968  5.03583796 22.07482882
   9.94025958  0.00000000  8.90893508
   9.89300210  0.00000000 16.61546672
  10.83171155  0.00000000 10.26166917
  10.79912951  0.00000000 17.97029123
   9.72756910  4.12006349  8.90893508
   9.75119784  4.16098967 16.61546672
   9.28184421  3.34804457 10.26166917
   9.29813523  3.37626145 17.97029123
   6.05314476  2.24422692  8.90893508
   6.07677350  2.20330073 16.61546672
   5.60741921  3.01624621 10.26166917
   5.62371023  2.98802933 17.97029123
  12.16437331  0.00000000 12.75214839
  12.16810594  0.00000000 20.44798143
  11.25341716  0.00000000 14.10476659
  11.24700580  0.00000000 21.80328502
   8.61551213  2.19392469 12.75214839
   8.61364581  2.19069213 20.44798143
   9.07099097  2.98283605 14.10476659
   9.07419665  2.98838845 21.80328502
   4.94108801  4.17036571 12.75214839
   4.93922169  4.17359827 20.44798143
   5.39656608  3.38145454 14.10476659
   5.39977176  3.37590215 21.80328502
  -1.67040686  7.16492502 14.38993294
  -1.67531411  7.16994753 22.07482882
  -0.30863948 10.59273383 14.38993294
  -0.30183623 10.59447238 22.07482882
   1.67495723  5.56305047 10.52792661
   1.67609895  5.56251460 18.24956728
  -3.36858503  8.49650043 10.52792661
  -3.36961996  8.49577962 18.24956728
  -5.65522198 11.39761222 10.52792661
  -5.65532875 11.39886891 18.24956728
  -1.98079655  7.69526031 10.52792661
  -1.98090332  7.69400363 18.24956728
   1.67495767  7.16553071 10.52792661
   1.67609938  7.16606658 18.24956728
  -3.98306481  8.50013870 14.38993294
  -3.97626156  8.49840016 22.07482882
  -1.69537854 11.39336826 14.38993294
  -1.69727454 11.40012932 22.07482882
  -1.67040675  5.56365655 14.38993294
  -1.67531400  5.55863404 22.07482882
  -1.08301486  6.36429059  8.90893508
  -1.13027234  6.36429059 16.61546672
  -0.19156376  6.36429059 10.26166917
  -0.22414581  6.36429059 17.97029123
  -1.29570490 10.48435446  8.90893508
  -1.27207616 10.52528064 16.61546672
  -1.74143045  9.71233516 10.26166917
  -1.72513943  9.74055204 17.97029123
   9.72756932  8.60851808  8.90893508
   9.75119806  8.56759189 16.61546672
   9.28184377  9.38053737 10.26166917
   9.29813479  9.35232049 17.97029123
   1.14109908  6.36429059 12.75214839
   1.14483172  6.36429059 20.44798143
   0.23014293  6.36429059 14.10476659
   0.22373158  6.36429059 21.80328502
  -2.40776177  8.55821547 12.75214839
  -2.40962809  8.55498291 20.44798143
  -1.95228413  9.34712740 14.10476659
  -1.94907845  9.35267980 21.80328502
  -6.08218709 10.53465706 12.75214839
  -6.08405341 10.53788962 20.44798143
   9.07099097  9.74574514 14.10476659
   9.07419665  9.74019274 21.80328502
   5.67844335  7.16492502 14.38993294
   5.67353610  7.16994753 22.07482882
   7.04020985 10.59273383 14.38993294
   7.04701310 10.59447238 22.07482882
   1.97904722  7.69950428 14.38993294
   1.97715122  7.69274322 22.07482882
   9.02380701  5.56305047 10.52792661
   9.02494872  5.56251460 18.24956728
   3.98026442  8.49650043 10.52792661
   3.97922948  8.49577962 18.24956728
   1.69362768 11.39761222 10.52792661
   1.69352091 11.39886891 18.24956728
   0.30583997 10.59637210 10.52792661
   0.30480503 10.59709292 18.24956728
   5.36805301  7.69526031 10.52792661
   5.36794623  7.69400363 18.24956728
   9.02380788  7.16553071 10.52792661
   9.02494959  7.16606658 18.24956728
   3.36578541  8.50013870 14.38993294
   3.37258865  8.49840016 22.07482882
   5.65347123 11.39336826 14.38993294
   5.65157523 11.40012932 22.07482882
   5.67844225  5.56365655 14.38993294
   5.67353500  5.55863404 22.07482882
   6.26583469  6.36429059  8.90893508
   6.21857721  6.36429059 16.61546672
   7.15728667  6.36429059 10.26166917
   7.12470462  6.36429059 17.97029123
   6.05314487 10.48435446  8.90893508
   6.07677361 10.52528064 16.61546672
   5.60741932  9.71233516 10.26166917
   5.62371034  9.74055204 17.97029123
   2.37871954  8.60851808  8.90893508
   2.40234829  8.56759189 16.61546672
   1.93299400  9.38053737 10.26166917
   1.94928502  9.35232049 17.97029123
   8.48994842  6.36429059 12.75214839
   8.49368106  6.36429059 20.44798143
   7.57899227  6.36429059 14.10476659
   7.57258091  6.36429059 21.80328502
   4.94108801  8.55821547 12.75214839
   4.93922169  8.55498291 20.44798143
   5.39656652  9.34712740 14.10476659
   5.39977220  9.35267980 21.80328502
   1.26666268 10.53465706 12.75214839
   1.26479636 10.53788962 20.44798143
   1.72214120  9.74574514 14.10476659
   1.72534687  9.74019274 21.80328502
  13.00232051  1.33521378 14.38993294
  13.00042451  1.32845272 22.07482882
  11.32911397  4.23208113 10.52792661
  11.32807903  4.23280195 18.24956728
   9.32789656  7.69950428 14.38993294
   9.32600056  7.69274322 22.07482882
   7.65468886 10.59637210 10.52792661
   7.65365393 10.59709292 18.24956728
  -1.99946721 11.92734107 10.52792661
  -1.99832550 11.92680519 18.24956728
  -5.34483153 11.92794752 14.38993294
  -5.34973878 11.92292501 22.07482882
   5.34938212 11.92734107 10.52792661
   5.35052383 11.92680519 18.24956728
   2.00401803 11.92794752 14.38993294
   1.99911078 11.92292501 22.07482882
   2.51341637  0.00000000  9.88243387
   2.48766998  0.00000000 17.59779367
   2.50140942  0.00000000 14.73039723
   2.51796499  0.00000000 22.37099106
   2.41771659  4.18760798  9.88243387
   2.43058979  4.20990501 17.59779367
   2.42372007  4.19800630 14.73039723
   2.41544228  4.18366876 22.37099106
  -1.25670818  2.17668242  9.88243387
  -1.24383499  2.15438540 17.59779367
  -1.25070471  2.16628410 14.73039723
  -1.25898249  2.18062164 22.37099106
   4.86797207  0.00000000 13.73448419
   4.86979144  0.00000000 21.43132388
   4.86193507  0.00000000 10.87940595
   4.85507442  0.00000000 18.59057004
   1.24043896  2.14850331 13.73448419
   1.23952927  2.14692768 21.43132388
   1.24345713  2.15373093 10.87940595
   1.24688746  2.15967243 18.59057004
  12.26371373  4.21578709 13.73448419
  12.26280404  4.21736272 21.43132388
  12.26673179  4.21055966 10.87940595
  12.27016212  4.20461817 18.59057004
   9.86226636  0.00000000  9.88243387
   9.83651997  0.00000000 17.59779367
   9.85025985  0.00000000 14.73039723
   9.86681542  0.00000000 22.37099106
   9.76656637  4.18760798  9.88243387
   9.77943956  4.20990501 17.59779367
   9.77256940  4.19800630 14.73039723
   9.76429162  4.18366876 22.37099106
   6.09214159  2.17668242  9.88243387
   6.10501478  2.15438540 17.59779367
   6.09814506  2.16628410 14.73039723
   6.08986728  2.18062164 22.37099106
  12.21682096  0.00000000 13.73448419
  12.21864034  0.00000000 21.43132388
  12.21078484  0.00000000 10.87940595
  12.20392420  0.00000000 18.59057004
   8.58928852  2.14850331 13.73448419
   8.58837883  2.14692768 21.43132388
   8.59230735  2.15373093 10.87940595
   8.59573767  2.15967243 18.59057004
   4.91486396  4.21578709 13.73448419
   4.91395427  4.21736272 21.43132388
   4.91788202  4.21055966 10.87940595
   4.92131234  4.20461817 18.59057004
  -1.16100852  6.36429059  9.88243387
  -1.18675491  6.36429059 17.59779367
  -1.17301547  6.36429059 14.73039723
  -1.15645990  6.36429059 22.37099106
  -1.25670786 10.55189933  9.88243387
  -1.24383466 10.57419636 17.59779367
  -1.25070460 10.56229651 14.73039723
  -1.25898238 10.54795897 22.37099106
   9.76656637  8.54097321  9.88243387
   9.77943956  8.51867618 17.59779367
  -4.92512992  8.53057526 14.73039723
  -4.93340771  8.54491281 22.37099106
   1.19354718  6.36429059 13.73448419
   1.19536656  6.36429059 21.43132388
   1.18751062  6.36429059 10.87940595
   1.18064997  6.36429059 18.59057004
  -2.43398603  8.51279447 13.73448419
  -2.43489572  8.51121884 21.43132388
  -2.43096819  8.51802191 10.87940595
  -2.42753787  8.52396340 18.59057004
  -6.10841092 10.58007807 13.73448419
  -6.10932061 10.58165369 21.43132388
  -6.10539242 10.57484987 10.87940595
  -6.10196210 10.56890838 18.59057004
   6.18784060  6.36429059  9.88243387
   6.16209421  6.36429059 17.59779367
   6.17583496  6.36429059 14.73039723
   6.19239053  6.36429059 22.37099106
   6.09214104 10.55189933  9.88243387
   6.10501424 10.57419636 17.59779367
   6.09814474 10.56229651 14.73039723
   6.08986695 10.54795897 22.37099106
   2.41771659  8.54097321  9.88243387
   2.43058979  8.51867618 17.59779367
   2.42371985  8.53057526 14.73039723
   2.41544206  8.54491281 22.37099106
   8.54239608  6.36429059 13.73448419
   8.54421546  6.36429059 21.43132388
   8.53635995  6.36429059 10.87940595
   8.52949931  6.36429059 18.59057004
   4.91486330  8.51279447 13.73448419
   4.91395361  8.51121884 21.43132388
   4.91788224  8.51802191 10.87940595
   4.92131256  8.52396340 18.59057004
   1.24043973 10.58007807 13.73448419
   1.23953004 10.58165369 21.43132388
   1.24345735 10.57484987 10.87940595
   1.24688768 10.56890838 18.59057004
 


--------------------------------------------------------------------------------------------------------


 use parallel FFT for orbitals z direction half grid
 k-point  1 :   0.0000 0.0000 0.0000  plane waves:   83586

 maximum and minimum number of plane-waves per node :      4185     4175

 maximum number of plane-waves:     83586
 maximum index in each direction: 
   IXMAX=   23   IYMAX=   23   IZMAX=   80
   IXMIN=  -23   IYMIN=  -23   IZMIN=    0


 real space projection operators:
  total allocation   :      17685.66 KBytes
  max/ min on nodes  :       1002.30        725.22


 parallel 3D FFT for wavefunctions:
    minimum data exchange during FFTs selected (reduces bandwidth)
 parallel 3D FFT for charge:
    minimum data exchange during FFTs selected (reduces bandwidth)


 total amount of memory used by VASP MPI-rank0    79214. kBytes
=======================================================================

   base      :      30000. kBytes
   nonlr-proj:       1220. kBytes
   fftplans  :      10983. kBytes
   grid      :      19058. kBytes
   one-center:         23. kBytes
   wavefun   :      17930. kBytes
 
     INWAV:  cpu time    0.0000: real time    0.0000
 Broyden mixing: mesh for mixing (old mesh)
   NGX = 47   NGY = 47   NGZ =161
  (NGX  =144   NGY  =144   NGZ  =500)
  gives a total of 355649 points

 initial charge density was supplied:
 charge density of overlapping atoms calculated
 number of electron     768.0000000 magnetization 
 keeping initial charge density in first step


--------------------------------------------------------------------------------------------------------


 Maximum index for non-local projection operator          148
 Maximum index for augmentation-charges          166 (set IRDMAX)


--------------------------------------------------------------------------------------------------------


 First call to EWALD:  gamma=   0.085
 Maximum number of real-space cells 4x 4x 1
 Maximum number of reciprocal cells 2x 2x 6

    FEWALD:  cpu time    0.0110: real time    0.0111


--------------------------------------- Iteration      1(   1)  ---------------------------------------


    POTLOK:  cpu time    0.2065: real time    0.2114
    SETDIJ:  cpu time    0.0083: real time    0.0088
     EDDAV:  cpu time    6.2674: real time    6.3329
       DOS:  cpu time    0.0003: real time    0.0003
    --------------------------------------------
      LOOP:  cpu time    6.4826: real time    6.5534

 eigenvalue-minimisations  :  1300
 total energy-change (2. order) : 0.6751071E+04  (-0.3002503E+05)
 number of electron     768.0000000 magnetization 
 augmentation part      768.0000000 magnetization 

 DIPCOR: dipole corrections for dipol
 direction  3 min pos   -37,
 dipolmoment           0.000000      0.000000     -0.020376 electrons x Angstroem
 Tr[quadrupol]    -28727.549907

 energy correction for charged system         0.000000 eV
 dipol+quadrupol energy correction           -0.000004 eV
 added-field ion interaction         -1.473058 eV  (added to PSCEN)


 Free energy of the ion-electron system (eV)
  ---------------------------------------------------
  alpha Z        PSCENC =       223.05953814
  Ewald energy   TEWEN  =    545732.39653060
  -Hartree energ DENC   =   -581406.84379667
  -exchange      EXHF   =         0.00000000
  -V(xc)+E(xc)   XCENC  =      3147.48641720
  PAW double counting   =     33678.48304920   -33852.85996766
  entropy T*S    EENTRO =        -0.46184031
  eigenvalues    EBANDS =     -4663.35349285
  atomic energy  EATOM  =     43893.16429109
  Solvation  Ediel_sol  =         0.00000000
  ---------------------------------------------------
  free energy    TOTEN  =      6751.07072873 eV

  energy without entropy =     6751.53256904  energy(sigma->0) =     6751.30164888


--------------------------------------------------------------------------------------------------------




--------------------------------------- Iteration      1(   2)  ---------------------------------------


     EDDAV:  cpu time    6.6963: real time    6.7639
       DOS:  cpu time    0.0002: real time    0.0002
    --------------------------------------------
      LOOP:  cpu time    6.6965: real time    6.7642

 eigenvalue-minimisations  :  1406
 total energy-change (2. order) :-0.6764486E+04  (-0.6479286E+04)
 number of electron     768.0000000 magnetization 
 augmentation part      768.0000000 magnetization 

 DIPCOR: dipole corrections for dipol
 direction  3 min pos   -37,
 dipolmoment           0.000000      0.000000     -0.020376 electrons x Angstroem
 Tr[quadrupol]    -28727.549907

 energy correction for charged system         0.000000 eV
 dipol+quadrupol energy correction           -0.000004 eV
 added-field ion interaction         -1.473058 eV  (added to PSCEN)


 Free energy of the ion-electron system (eV)
  ---------------------------------------------------
  alpha Z        PSCENC =       223.05953814
  Ewald energy   TEWEN  =    545732.39653060
  -Hartree energ DENC   =   -581406.84379667
  -exchange      EXHF   =         0.00000000
  -V(xc)+E(xc)   XCENC  =      3147.48641720
  PAW double counting   =     33678.48304920   -33852.85996766
  entropy T*S    EENTRO =        -0.00000000
  eigenvalues    EBANDS =    -11428.30136351
  atomic energy  EATOM  =     43893.16429109
  Solvation  Ediel_sol  =         0.00000000
  ---------------------------------------------------
  free energy    TOTEN  =       -13.41530162 eV

  energy without entropy =      -13.41530162  energy(sigma->0) =      -13.41530162


--------------------------------------------------------------------------------------------------------




--------------------------------------- Iteration      1(   3)  ---------------------------------------


     EDDAV:  cpu time    6.0632: real time    6.1244
       DOS:  cpu time    0.0002: real time    0.0002
    --------------------------------------------
      LOOP:  cpu time    6.0634: real time    6.1246

 eigenvalue-minimisations  :  1248
 total energy-change (2. order) :-0.1492968E+04  (-0.1485074E+04)
 number of electron     768.0000000 magnetization 
 augmentation part      768.0000000 magnetization 

 DIPCOR: dipole corrections for dipol
 direction  3 min pos   -37,
 dipolmoment           0.000000      0.000000     -0.020376 electrons x Angstroem
 Tr[quadrupol]    -28727.549907

 energy correction for charged system         0.000000 eV
 dipol+quadrupol energy correction           -0.000004 eV
 added-field ion interaction         -1.473058 eV  (added to PSCEN)


 Free energy of the ion-electron system (eV)
  ---------------------------------------------------
  alpha Z        PSCENC =       223.05953814
  Ewald energy   TEWEN  =    545732.39653060
  -Hartree energ DENC   =   -581406.84379667
  -exchange      EXHF   =         0.00000000
  -V(xc)+E(xc)   XCENC  =      3147.48641720
  PAW double counting   =     33678.48304920   -33852.85996766
  entropy T*S    EENTRO =        -0.00000000
  eigenvalues    EBANDS =    -12921.26892745
  atomic energy  EATOM  =     43893.16429109
  Solvation  Ediel_sol  =         0.00000000
  ---------------------------------------------------
  free energy    TOTEN  =     -1506.38286557 eV

  energy without entropy =    -1506.38286557  energy(sigma->0) =    -1506.38286557


--------------------------------------------------------------------------------------------------------




--------------------------------------- Iteration      1(   4)  ---------------------------------------


     EDDAV:  cpu time    6.1151: real time    6.1766
       DOS:  cpu time    0.0002: real time    0.0002
    --------------------------------------------
      LOOP:  cpu time    6.1153: real time    6.1768

 eigenvalue-minimisations  :  1264
 total energy-change (2. order) :-0.4635249E+02  (-0.4617786E+02)
 number of electron     768.0000000 magnetization 
 augmentation part      768.0000000 magnetization 

 DIPCOR: dipole corrections for dipol
 direction  3 min pos   -37,
 dipolmoment           0.000000      0.000000     -0.020376 electrons x Angstroem
 Tr[quadrupol]    -28727.549907

 energy correction for charged system         0.000000 eV
 dipol+quadrupol energy correction           -0.000004 eV
 added-field ion interaction         -1.473058 eV  (added to PSCEN)


 Free energy of the ion-electron system (eV)
  ---------------------------------------------------
  alpha Z        PSCENC =       223.05953814
  Ewald energy   TEWEN  =    545732.39653060
  -Hartree energ DENC   =   -581406.84379667
  -exchange      EXHF   =         0.00000000
  -V(xc)+E(xc)   XCENC  =      3147.48641720
  PAW double counting   =     33678.48304920   -33852.85996766
  entropy T*S    EENTRO =        -0.00000000
  eigenvalues    EBANDS =    -12967.62142154
  atomic energy  EATOM  =     43893.16429109
  Solvation  Ediel_sol  =         0.00000000
  ---------------------------------------------------
  free energy    TOTEN  =     -1552.73535965 eV

  energy without entropy =    -1552.73535965  energy(sigma->0) =    -1552.73535965


--------------------------------------------------------------------------------------------------------




--------------------------------------- Iteration      1(   5)  ---------------------------------------


     EDDAV:  cpu time    6.2342: real time    6.2972
       DOS:  cpu time    0.0002: real time    0.0002
    CHARGE:  cpu time    0.3675: real time    0.3704
    MIXING:  cpu time    0.0062: real time    0.0067
    --------------------------------------------
      LOOP:  cpu time    6.6082: real time    6.6746

 eigenvalue-minimisations  :  1296
 total energy-change (2. order) :-0.1062625E+01  (-0.1062054E+01)
 number of electron     767.9998418 magnetization 
 augmentation part       77.7608027 magnetization 

 DIPCOR: dipole corrections for dipol
 direction  3 min pos   -37,
 dipolmoment           0.000000      0.000000     -0.020376 electrons x Angstroem
 Tr[quadrupol]    -28727.549907

 energy correction for charged system         0.000000 eV
 dipol+quadrupol energy correction           -0.000004 eV
 added-field ion interaction         -1.473058 eV  (added to PSCEN)


 Broyden mixing:
  rms(total) = 0.68398E+01    rms(broyden)= 0.68266E+01
  rms(prec ) = 0.69320E+01
  weight for this iteration     100.00

 Free energy of the ion-electron system (eV)
  ---------------------------------------------------
  alpha Z        PSCENC =       223.05953814
  Ewald energy   TEWEN  =    545732.39653060
  -Hartree energ DENC   =   -581406.84379667
  -exchange      EXHF   =         0.00000000
  -V(xc)+E(xc)   XCENC  =      3147.48641720
  PAW double counting   =     33678.48304920   -33852.85996766
  entropy T*S    EENTRO =        -0.00000000
  eigenvalues    EBANDS =    -12968.68404606
  atomic energy  EATOM  =     43893.16429109
  Solvation  Ediel_sol  =         0.00000000
  ---------------------------------------------------
  free energy    TOTEN  =     -1553.79798418 eV

  energy without entropy =    -1553.79798418  energy(sigma->0) =    -1553.79798418


--------------------------------------------------------------------------------------------------------




--------------------------------------- Iteration      1(   6)  ---------------------------------------


    POTLOK:  cpu time    0.1980: real time    0.1998
    SETDIJ:  cpu time    0.0078: real time    0.0079
    EDDIAG:  cpu time    0.8872: real time    0.8966
  RMM-DIIS:  cpu time    5.0139: real time    5.0726
    ORTHCH:  cpu time    0.1210: real time    0.1222
       DOS:  cpu time    0.0003: real time    0.0003
    CHARGE:  cpu time    0.3651: real time    0.3677
    MIXING:  cpu time    0.0070: real time    0.0073
    --------------------------------------------
      LOOP:  cpu time    6.6002: real time    6.6744

 eigenvalue-minimisations  :  1609
 total energy-change (2. order) :-0.4486443E+05  (-0.9153324E+04)
 number of electron     767.9998348 magnetization 
 augmentation part       55.5416954 magnetization 

 DIPCOR: dipole corrections for dipol
 direction  3 min pos   190,
 dipolmoment           0.000000      0.000000   -400.273171 electrons x Angstroem
 Tr[quadrupol]    -52373.556150

 energy correction for charged system         0.000000 eV
 dipol+quadrupol energy correction        -1574.795442 eV
 added-field ion interaction      59073.956554 eV  (added to PSCEN)


 Broyden mixing:
  rms(total) = 0.23521E+02    rms(broyden)= 0.23512E+02
  rms(prec ) = 0.29441E+02
  weight for this iteration     100.00

 eigenvalues of (default mixing * dielectric matrix)
  average eigenvalue GAMMA=   0.1435
  0.1435

 Free energy of the ion-electron system (eV)
  ---------------------------------------------------
  alpha Z        PSCENC =     57723.69371107
  Ewald energy   TEWEN  =    545732.39653060
  -Hartree energ DENC   =   -583322.88169518
  -exchange      EXHF   =         0.00000000
  -V(xc)+E(xc)   XCENC  =      3254.95736456
  PAW double counting   =     42644.29573284   -42848.39941326
  entropy T*S    EENTRO =        -0.00448808
  eigenvalues    EBANDS =   -113495.44589946
  atomic energy  EATOM  =     43893.16429109
  Solvation  Ediel_sol  =         0.00000000
  ---------------------------------------------------
  free energy    TOTEN  =    -46418.22386582 eV

  energy without entropy =   -46418.21937774  energy(sigma->0) =   -46418.22162178


--------------------------------------------------------------------------------------------------------




--------------------------------------- Iteration      1(   7)  ---------------------------------------


    POTLOK:  cpu time    0.2051: real time    0.2071
    SETDIJ:  cpu time    0.0076: real time    0.0078
    EDDIAG:  cpu time    0.8826: real time    0.8915
  RMM-DIIS:  cpu time    4.5992: real time    4.6524
    ORTHCH:  cpu time    0.1213: real time    0.1226
       DOS:  cpu time    0.0004: real time    0.0004
    CHARGE:  cpu time    0.3679: real time    0.3707
    MIXING:  cpu time    0.0073: real time    0.0074
    --------------------------------------------
      LOOP:  cpu time    6.1914: real time    6.2599

 eigenvalue-minimisations  :  1526
 total energy-change (2. order) : 0.4574986E+05  (-0.3579968E+03)
 number of electron     767.9998643 magnetization 
 augmentation part       62.4033836 magnetization 

 DIPCOR: dipole corrections for dipol
 direction  3 min pos   297,
 dipolmoment           0.000000      0.000000    -20.400004 electrons x Angstroem
 Tr[quadrupol]    -29054.784728

 energy correction for charged system         0.000000 eV
 dipol+quadrupol energy correction           -4.090456 eV
 added-field ion interaction       3556.250024 eV  (added to PSCEN)


 Broyden mixing:
  rms(total) = 0.11569E+02    rms(broyden)= 0.11549E+02
  rms(prec ) = 0.12204E+02
  weight for this iteration     100.00

 eigenvalues of (default mixing * dielectric matrix)
  average eigenvalue GAMMA=   0.1849
  0.2895  0.0802

 Free energy of the ion-electron system (eV)
  ---------------------------------------------------
  alpha Z        PSCENC =      3776.69216838
  Ewald energy   TEWEN  =    545732.39653060
  -Hartree energ DENC   =   -582560.57299773
  -exchange      EXHF   =         0.00000000
  -V(xc)+E(xc)   XCENC  =      3238.84160589
  PAW double counting   =     42194.33373427   -42398.41301115
  entropy T*S    EENTRO =        -0.13791536
  eigenvalues    EBANDS =    -14544.66835258
  atomic energy  EATOM  =     43893.16429109
  Solvation  Ediel_sol  =         0.00000000
  ---------------------------------------------------
  free energy    TOTEN  =      -668.36394659 eV

  energy without entropy =     -668.22603123  energy(sigma->0) =     -668.29498891


--------------------------------------------------------------------------------------------------------




--------------------------------------- Iteration      1(   8)  ---------------------------------------


    POTLOK:  cpu time    0.2083: real time    0.2127
    SETDIJ:  cpu time    0.0078: real time    0.0078
    EDDIAG:  cpu time    0.8835: real time    0.8925
  RMM-DIIS:  cpu time    5.9194: real time    5.9886
    ORTHCH:  cpu time    0.1206: real time    0.1218
       DOS:  cpu time    0.0003: real time    0.0003
    CHARGE:  cpu time    0.3730: real time    0.3756
    MIXING:  cpu time    0.0075: real time    0.0075
    --------------------------------------------
      LOOP:  cpu time    7.5204: real time    7.6069

 eigenvalue-minimisations  :  1971
 total energy-change (2. order) : 0.3221650E+03  (-0.5061888E+02)
 number of electron     767.9998694 magnetization 
 augmentation part       62.1531237 magnetization 

 DIPCOR: dipole corrections for dipol
 direction  3 min pos   348,
 dipolmoment           0.000000      0.000000    -13.585586 electrons x Angstroem
 Tr[quadrupol]    -28762.161705

 energy correction for charged system         0.000000 eV
 dipol+quadrupol energy correction           -1.814128 eV
 added-field ion interaction       1338.959877 eV  (added to PSCEN)


 Broyden mixing:
  rms(total) = 0.93510E+01    rms(broyden)= 0.93492E+01
  rms(prec ) = 0.10124E+02
  weight for this iteration     100.00

 eigenvalues of (default mixing * dielectric matrix)
  average eigenvalue GAMMA=   0.4813
  0.6737  0.6737  0.0964

 Free energy of the ion-electron system (eV)
  ---------------------------------------------------
  alpha Z        PSCENC =      1561.67834843
  Ewald energy   TEWEN  =    545732.39653060
  -Hartree energ DENC   =   -581609.50993062
  -exchange      EXHF   =         0.00000000
  -V(xc)+E(xc)   XCENC  =      3227.84820640
  PAW double counting   =     42683.98453624   -42887.40792057
  entropy T*S    EENTRO =        -0.32716913
  eigenvalues    EBANDS =    -12948.02586905
  atomic energy  EATOM  =     43893.16429109
  Solvation  Ediel_sol  =         0.00000000
  ---------------------------------------------------
  free energy    TOTEN  =      -346.19897663 eV

  energy without entropy =     -345.87180750  energy(sigma->0) =     -346.03539206


--------------------------------------------------------------------------------------------------------




--------------------------------------- Iteration      1(   9)  ---------------------------------------


    POTLOK:  cpu time    0.2088: real time    0.2108
    SETDIJ:  cpu time    0.0078: real time    0.0078
    EDDIAG:  cpu time    0.9016: real time    0.9111
  RMM-DIIS:  cpu time    6.2516: real time    6.3244
    ORTHCH:  cpu time    0.1206: real time    0.1217
       DOS:  cpu time    0.0003: real time    0.0003
    CHARGE:  cpu time    0.3727: real time    0.3753
    MIXING:  cpu time    0.0073: real time    0.0073
    --------------------------------------------
      LOOP:  cpu time    7.8708: real time    7.9588

 eigenvalue-minimisations  :  2071
 total energy-change (2. order) : 0.2384154E+03  (-0.1416757E+03)
 number of electron     767.9998512 magnetization 
 augmentation part       64.3998323 magnetization 

 DIPCOR: dipole corrections for dipol
 direction  3 min pos   368,
 dipolmoment           0.000000      0.000000      1.409221 electrons x Angstroem
 Tr[quadrupol]    -28276.577509

 energy correction for charged system         0.000000 eV
 dipol+quadrupol energy correction           -0.019520 eV
 added-field ion interaction        -97.016748 eV  (added to PSCEN)


 Broyden mixing:
  rms(total) = 0.52875E+01    rms(broyden)= 0.52799E+01
  rms(prec ) = 0.54594E+01
  weight for this iteration     100.00

 eigenvalues of (default mixing * dielectric matrix)
  average eigenvalue GAMMA=   0.5398
  0.7898  0.7898  0.0962  0.4836

 Free energy of the ion-electron system (eV)
  ---------------------------------------------------
  alpha Z        PSCENC =       127.49633258
  Ewald energy   TEWEN  =    545732.39653060
  -Hartree energ DENC   =   -577673.75745444
  -exchange      EXHF   =         0.00000000
  -V(xc)+E(xc)   XCENC  =      3199.02069537
  PAW double counting   =     43269.66931851   -43470.66795215
  entropy T*S    EENTRO =        -0.19375035
  eigenvalues    EBANDS =    -15184.91155882
  atomic energy  EATOM  =     43893.16429109
  Solvation  Ediel_sol  =         0.00000000
  ---------------------------------------------------
  free energy    TOTEN  =      -107.78354762 eV

  energy without entropy =     -107.58979727  energy(sigma->0) =     -107.68667244


--------------------------------------------------------------------------------------------------------




--------------------------------------- Iteration      1(  10)  ---------------------------------------


    POTLOK:  cpu time    0.2091: real time    0.2111
    SETDIJ:  cpu time    0.0078: real time    0.0079
    EDDIAG:  cpu time    0.8826: real time    0.8917
  RMM-DIIS:  cpu time    6.4040: real time    6.4782
    ORTHCH:  cpu time    0.1203: real time    0.1214
       DOS:  cpu time    0.0003: real time    0.0003
    CHARGE:  cpu time    0.3692: real time    0.3719
    MIXING:  cpu time    0.0073: real time    0.0073
    --------------------------------------------
      LOOP:  cpu time    8.0006: real time    8.0898

 eigenvalue-minimisations  :  2096
 total energy-change (2. order) :-0.1237372E+03  (-0.1697961E+03)
 number of electron     767.9998378 magnetization 
 augmentation part       65.1243439 magnetization 

 DIPCOR: dipole corrections for dipol
 direction  3 min pos   378,
 dipolmoment           0.000000      0.000000      1.249265 electrons x Angstroem
 Tr[quadrupol]    -28257.369169

 energy correction for charged system         0.000000 eV
 dipol+quadrupol energy correction           -0.015340 eV
 added-field ion interaction        -67.444892 eV  (added to PSCEN)


 Broyden mixing:
  rms(total) = 0.29840E+01    rms(broyden)= 0.29742E+01
  rms(prec ) = 0.30733E+01
  weight for this iteration     100.00

 eigenvalues of (default mixing * dielectric matrix)
  average eigenvalue GAMMA=   0.6511
  0.9558  0.9558  0.0963  0.6239  0.6239

 Free energy of the ion-electron system (eV)
  ---------------------------------------------------
  alpha Z        PSCENC =       157.07236757
  Ewald energy   TEWEN  =    545732.39653060
  -Hartree energ DENC   =   -577455.40250131
  -exchange      EXHF   =         0.00000000
  -V(xc)+E(xc)   XCENC  =      3194.07890125
  PAW double counting   =     44687.23355009   -44888.74315372
  entropy T*S    EENTRO =        -0.25456735
  eigenvalues    EBANDS =    -15551.06611754
  atomic energy  EATOM  =     43893.16429109
  Solvation  Ediel_sol  =         0.00000000
  ---------------------------------------------------
  free energy    TOTEN  =      -231.52069932 eV

  energy without entropy =     -231.26613197  energy(sigma->0) =     -231.39341565


--------------------------------------------------------------------------------------------------------




--------------------------------------- Iteration      1(  11)  ---------------------------------------


    POTLOK:  cpu time    0.2095: real time    0.2114
    SETDIJ:  cpu time    0.0078: real time    0.0078
    EDDIAG:  cpu time    0.8841: real time    0.8933
  RMM-DIIS:  cpu time    6.3440: real time    6.4198
    ORTHCH:  cpu time    0.1210: real time    0.1222
       DOS:  cpu time    0.0003: real time    0.0003
    CHARGE:  cpu time    0.3662: real time    0.3689
    MIXING:  cpu time    0.0076: real time    0.0077
    --------------------------------------------
      LOOP:  cpu time    7.9405: real time    8.0314

 eigenvalue-minimisations  :  2087
 total energy-change (2. order) :-0.1469258E+03  (-0.1059338E+03)
 number of electron     767.9998270 magnetization 
 augmentation part       64.5007118 magnetization 

 DIPCOR: dipole corrections for dipol
 direction  3 min pos   382,
 dipolmoment           0.000000      0.000000     -2.619993 electrons x Angstroem
 Tr[quadrupol]    -28324.353444

 energy correction for charged system         0.000000 eV
 dipol+quadrupol energy correction           -0.067470 eV
 added-field ion interaction        125.877627 eV  (added to PSCEN)


 Broyden mixing:
  rms(total) = 0.26821E+01    rms(broyden)= 0.26743E+01
  rms(prec ) = 0.29963E+01
  weight for this iteration     100.00

 eigenvalues of (default mixing * dielectric matrix)
  average eigenvalue GAMMA=   0.6883
  1.1500  1.1500  0.0963  0.6496  0.6496  0.4342

 Free energy of the ion-electron system (eV)
  ---------------------------------------------------
  alpha Z        PSCENC =       350.34275684
  Ewald energy   TEWEN  =    545732.39653060
  -Hartree energ DENC   =   -578196.99266512
  -exchange      EXHF   =         0.00000000
  -V(xc)+E(xc)   XCENC  =      3200.96616415
  PAW double counting   =     46269.16235370   -46472.77695352
  entropy T*S    EENTRO =        -0.53065697
  eigenvalues    EBANDS =    -15154.17828752
  atomic energy  EATOM  =     43893.16429109
  Solvation  Ediel_sol  =         0.00000000
  ---------------------------------------------------
  free energy    TOTEN  =      -378.44646675 eV

  energy without entropy =     -377.91580979  energy(sigma->0) =     -378.18113827


--------------------------------------------------------------------------------------------------------




--------------------------------------- Iteration      1(  12)  ---------------------------------------


    POTLOK:  cpu time    0.2095: real time    0.2114
    SETDIJ:  cpu time    0.0078: real time    0.0078
    EDDIAG:  cpu time    0.9000: real time    0.9091
  RMM-DIIS:  cpu time    4.2720: real time    4.3215
    ORTHCH:  cpu time    0.1215: real time    0.1226
       DOS:  cpu time    0.0003: real time    0.0003
    CHARGE:  cpu time    0.3602: real time    0.3627
    MIXING:  cpu time    0.0081: real time    0.0081
    --------------------------------------------
      LOOP:  cpu time    5.8794: real time    5.9435

 eigenvalue-minimisations  :  1391
 total energy-change (2. order) :-0.2559112E+06  (-0.7087822E+05)
 number of electron     767.9999305 magnetization 
 augmentation part       35.4037193 magnetization 

 DIPCOR: dipole corrections for dipol
 direction  3 min pos   179,
 dipolmoment           0.000000      0.000000   1865.242566 electrons x Angstroem
 Tr[quadrupol]    -51903.712172

 energy correction for charged system         0.000000 eV
 dipol+quadrupol energy correction       -34196.513126 eV
 added-field ion interaction      18977.357696 eV  (added to PSCEN)


 Broyden mixing:
  rms(total) = 0.25396E+02    rms(broyden)= 0.25383E+02
  rms(prec ) = 0.30210E+02
  weight for this iteration     100.00

 eigenvalues of (default mixing * dielectric matrix)
  average eigenvalue GAMMA=   0.5800
  1.1537  1.1537  0.6028  0.6028  0.0963  0.4182  0.0328

 Free energy of the ion-electron system (eV)
  ---------------------------------------------------
  alpha Z        PSCENC =    -14994.62282945
  Ewald energy   TEWEN  =    545732.39653060
  -Hartree energ DENC   =   -578866.41769138
  -exchange      EXHF   =         0.00000000
  -V(xc)+E(xc)   XCENC  =      3200.81600724
  PAW double counting   =     46275.50311626   -46479.20532333
  entropy T*S    EENTRO =        -0.00031622
  eigenvalues    EBANDS =   -255051.26469997
  atomic energy  EATOM  =     43893.16429109
  Solvation  Ediel_sol  =         0.00000000
  ---------------------------------------------------
  free energy    TOTEN  =   -256289.63091518 eV

  energy without entropy =  -256289.63059896  energy(sigma->0) =  -256289.63075707


--------------------------------------------------------------------------------------------------------




--------------------------------------- Iteration      1(  13)  ---------------------------------------


    POTLOK:  cpu time    0.2054: real time    0.2075
    SETDIJ:  cpu time    0.0078: real time    0.0079
    EDDIAG:  cpu time    0.8821: real time    0.8912
  RMM-DIIS:  cpu time    5.7566: real time    5.8247
    ORTHCH:  cpu time    0.1208: real time    0.1220
       DOS:  cpu time    0.0004: real time    0.0004
    CHARGE:  cpu time    0.3677: real time    0.3706
    MIXING:  cpu time    0.0083: real time    0.0083
    --------------------------------------------
      LOOP:  cpu time    7.3491: real time    7.4326

 eigenvalue-minimisations  :  1906
 total energy-change (2. order) : 0.2567347E+06  (-0.2457767E+04)
 number of electron     767.9998763 magnetization 
 augmentation part       59.8093010 magnetization 

 DIPCOR: dipole corrections for dipol
 direction  3 min pos   293,
 dipolmoment           0.000000      0.000000    -30.426341 electrons x Angstroem
 Tr[quadrupol]    -28596.069334

 energy correction for charged system         0.000000 eV
 dipol+quadrupol energy correction           -9.099356 eV
 added-field ion interaction       5484.913200 eV  (added to PSCEN)


 Broyden mixing:
  rms(total) = 0.11852E+02    rms(broyden)= 0.11828E+02
  rms(prec ) = 0.12724E+02
  weight for this iteration     100.00

 eigenvalues of (default mixing * dielectric matrix)
  average eigenvalue GAMMA=   0.5074
  1.1523  1.1523  0.5986  0.5986  0.4227  0.0963  0.0348  0.0034

 Free energy of the ion-electron system (eV)
  ---------------------------------------------------
  alpha Z        PSCENC =      5700.34644366
  Ewald energy   TEWEN  =    545732.39653060
  -Hartree energ DENC   =   -578730.74186045
  -exchange      EXHF   =         0.00000000
  -V(xc)+E(xc)   XCENC  =      3197.87091132
  PAW double counting   =     45626.16489428   -45829.52506214
  entropy T*S    EENTRO =        -0.50963274
  eigenvalues    EBANDS =    -19144.10182365
  atomic energy  EATOM  =     43893.16429109
  Solvation  Ediel_sol  =         0.00000000
[...]
      6.10501      2.15439     17.59779         0.287880     -0.498623      1.159126
      6.09815      2.16628     14.73040        -0.023327      0.040404      0.686375
      6.08987      2.18062     22.37099        -0.002903      0.005028     -0.220622
     12.21682      0.00000     13.73448        -0.064173     -0.000000      0.402639
     12.21864      0.00000     21.43132         0.294104     -0.000000     -0.705648
     12.21078      0.00000     10.87941         0.001788     -0.000000      0.309216
     12.20392      0.00000     18.59057       -27.087304     -0.000000     21.255002
      8.58929      2.14850     13.73448         0.032086      0.055575      0.402639
      8.58838      2.14693     21.43132        -0.147052     -0.254702     -0.705648
      8.59231      2.15373     10.87941        -0.000894     -0.001549      0.309216
      8.59574      2.15967     18.59057        13.543652     23.458293     21.255002
      4.91486      4.21579     13.73448         0.032086     -0.055575      0.402639
      4.91395      4.21736     21.43132        -0.147052      0.254702     -0.705648
      4.91788      4.21056     10.87941        -0.000894      0.001549      0.309216
      4.92131      4.20462     18.59057        13.543652    -23.458293     21.255002
     -1.16101      6.36429      9.88243         0.017056     -0.000000      0.213885
     -1.18675      6.36429     17.59779        -0.575761     -0.000000      1.159126
     -1.17302      6.36429     14.73040         0.046654     -0.000000      0.686375
     -1.15646      6.36429     22.37099         0.005806     -0.000000     -0.220622
     -1.25671     10.55190      9.88243        -0.008528     -0.014771      0.213885
     -1.24383     10.57420     17.59779         0.287880      0.498623      1.159126
     -1.25070     10.56230     14.73040        -0.023327     -0.040404      0.686375
     -1.25898     10.54796     22.37099        -0.002903     -0.005028     -0.220622
      9.76657      8.54097      9.88243        -0.008528      0.014771      0.213885
      9.77944      8.51868     17.59779         0.287880     -0.498623      1.159126
     -4.92513      8.53058     14.73040        -0.023327      0.040404      0.686375
     -4.93341      8.54491     22.37099        -0.002903      0.005028     -0.220622
      1.19355      6.36429     13.73448        -0.064173     -0.000000      0.402639
      1.19537      6.36429     21.43132         0.294104     -0.000000     -0.705648
      1.18751      6.36429     10.87941         0.001788     -0.000000      0.309216
      1.18065      6.36429     18.59057       -27.087304     -0.000000     21.255002
     -2.43399      8.51279     13.73448         0.032086      0.055575      0.402639
     -2.43490      8.51122     21.43132        -0.147052     -0.254702     -0.705648
     -2.43097      8.51802     10.87941        -0.000894     -0.001549      0.309216
     -2.42754      8.52396     18.59057        13.543652     23.458293     21.255002
     -6.10841     10.58008     13.73448         0.032086     -0.055575      0.402639
     -6.10932     10.58165     21.43132        -0.147052      0.254702     -0.705648
     -6.10539     10.57485     10.87941        -0.000894      0.001549      0.309216
     -6.10196     10.56891     18.59057        13.543652    -23.458293     21.255002
      6.18784      6.36429      9.88243         0.017056     -0.000000      0.213885
      6.16209      6.36429     17.59779        -0.575761     -0.000000      1.159126
      6.17583      6.36429     14.73040         0.046654     -0.000000      0.686375
      6.19239      6.36429     22.37099         0.005806     -0.000000     -0.220622
      6.09214     10.55190      9.88243        -0.008528     -0.014771      0.213885
      6.10501     10.57420     17.59779         0.287880      0.498623      1.159126
      6.09814     10.56230     14.73040        -0.023327     -0.040404      0.686375
      6.08987     10.54796     22.37099        -0.002903     -0.005028     -0.220622
      2.41772      8.54097      9.88243        -0.008528      0.014771      0.213885
      2.43059      8.51868     17.59779         0.287880     -0.498623      1.159126
      2.42372      8.53058     14.73040        -0.023327      0.040404      0.686375
      2.41544      8.54491     22.37099        -0.002903      0.005028     -0.220622
      8.54240      6.36429     13.73448        -0.064173     -0.000000      0.402639
      8.54422      6.36429     21.43132         0.294104     -0.000000     -0.705648
      8.53636      6.36429     10.87941         0.001788     -0.000000      0.309216
      8.52950      6.36429     18.59057       -27.087304     -0.000000     21.255002
      4.91486      8.51279     13.73448         0.032086      0.055575      0.402639
      4.91395      8.51122     21.43132        -0.147052     -0.254702     -0.705648
      4.91788      8.51802     10.87941        -0.000894     -0.001549      0.309216
      4.92131      8.52396     18.59057        13.543652     23.458293     21.255002
      1.24044     10.58008     13.73448         0.032086     -0.055575      0.402639
      1.23953     10.58165     21.43132        -0.147052      0.254702     -0.705648
      1.24346     10.57485     10.87941        -0.000894      0.001549      0.309216
      1.24689     10.56891     18.59057        13.543652    -23.458293     21.255002
 -----------------------------------------------------------------------------------
    total drift:                                0.013519      0.002637      0.197439


--------------------------------------------------------------------------------------------------------



  FREE ENERGIE OF THE ION-ELECTRON SYSTEM (eV)
  ---------------------------------------------------
  free  energy   TOTEN  =      -684.35093834 eV

  energy  without entropy=     -684.22717252  energy(sigma->0) =     -684.28905543
 


--------------------------------------------------------------------------------------------------------


    POTLOK:  cpu time    0.2101: real time    0.2119


--------------------------------------------------------------------------------------------------------


     LOOP+:  cpu time 2568.6106: real time 2597.1462
 vacuum level on the upper side and lower side of the slab         3.193         0.170
    4ORBIT:  cpu time    0.0000: real time    0.0000
 


 total charge     
 
# of ion       s       p       d       tot
------------------------------------------
    1        0.568   0.115   0.000   0.684
    2        0.574   0.113   0.000   0.688
    3        0.568   0.115   0.000   0.684
    4        0.574   0.113   0.000   0.688
    5        0.571   0.115   0.000   0.686
    6        0.373   0.116   0.000   0.489
    7        0.571   0.115   0.000   0.686
    8        0.352   0.114   0.000   0.465
    9        0.571   0.115   0.000   0.686
   10        0.372   0.116   0.000   0.489
   11        0.571   0.115   0.000   0.686
   12        0.338   0.111   0.000   0.449
   13        0.568   0.115   0.000   0.684
   14        0.574   0.113   0.000   0.688
   15        0.568   0.115   0.000   0.684
   16        0.574   0.113   0.000   0.688
   17        0.614   0.114   0.000   0.727
   18        0.539   0.124   0.000   0.663
   19        0.530   0.107   0.000   0.636
   20        0.530   0.101   0.000   0.631
   21        0.614   0.114   0.000   0.727
   22        0.548   0.126   0.000   0.675
   23        0.530   0.107   0.000   0.636
   24        0.537   0.102   0.000   0.639
   25        0.614   0.114   0.000   0.727
   26        0.561   0.129   0.000   0.689
   27        0.530   0.107   0.000   0.636
   28        0.548   0.104   0.000   0.652
   29        0.594   0.119   0.000   0.713
   30        0.630   0.110   0.000   0.740
   31        0.540   0.108   0.000   0.648
   32        0.523   0.110   0.000   0.633
   33        0.594   0.119   0.000   0.713
   34        0.630   0.110   0.000   0.740
   35        0.540   0.108   0.000   0.648
   36        0.523   0.110   0.000   0.633
   37        0.594   0.119   0.000   0.713
   38        0.630   0.110   0.000   0.740
   39        0.540   0.108   0.000   0.648
   40        0.523   0.110   0.000   0.633
   41        0.568   0.115   0.000   0.684
   42        0.574   0.113   0.000   0.688
   43        0.568   0.115   0.000   0.684
   44        0.574   0.113   0.000   0.688
   45        0.568   0.115   0.000   0.684
   46        0.574   0.113   0.000   0.688
   47        0.571   0.115   0.000   0.686
   48        0.368   0.115   0.000   0.483
   49        0.571   0.115   0.000   0.686
   50        0.329   0.110   0.000   0.439
   51        0.571   0.115   0.000   0.686
   52        0.330   0.110   0.000   0.440
   53        0.571   0.115   0.000   0.686
   54        0.366   0.115   0.000   0.482
   55        0.571   0.115   0.000   0.686
   56        0.318   0.107   0.000   0.426
   57        0.568   0.115   0.000   0.684
   58        0.574   0.113   0.000   0.688
   59        0.568   0.115   0.000   0.684
   60        0.574   0.113   0.000   0.688
   61        0.614   0.114   0.000   0.727
   62        0.555   0.128   0.000   0.683
   63        0.530   0.107   0.000   0.636
   64        0.543   0.103   0.000   0.646
   65        0.614   0.114   0.000   0.727
   66        0.553   0.127   0.000   0.680
   67        0.530   0.107   0.000   0.636
   68        0.541   0.103   0.000   0.643
   69        0.614   0.114   0.000   0.727
   70        0.530   0.122   0.000   0.652
   71        0.530   0.107   0.000   0.636
   72        0.522   0.099   0.000   0.622
   73        0.594   0.119   0.000   0.713
   74        0.630   0.110   0.000   0.740
   75        0.540   0.108   0.000   0.648
   76        0.523   0.110   0.000   0.633
   77        0.594   0.119   0.000   0.713
   78        0.630   0.110   0.000   0.740
   79        0.540   0.108   0.000   0.648
   80        0.523   0.110   0.000   0.633
   81        0.594   0.119   0.000   0.713
   82        0.630   0.110   0.000   0.740
   83        0.540   0.108   0.000   0.648
   84        0.523   0.110   0.000   0.633
   85        0.568   0.115   0.000   0.684
   86        0.574   0.113   0.000   0.688
   87        0.568   0.115   0.000   0.684
   88        0.574   0.113   0.000   0.688
   89        0.571   0.115   0.000   0.686
   90        0.334   0.109   0.000   0.444
   91        0.571   0.115   0.000   0.686
   92        0.317   0.106   0.000   0.422
   93        0.571   0.115   0.000   0.686
   94        0.374   0.117   0.000   0.491
   95        0.571   0.115   0.000   0.686
   96        0.315   0.106   0.000   0.421
   97        0.571   0.115   0.000   0.686
   98        0.333   0.109   0.000   0.442
   99        0.568   0.115   0.000   0.684
  100        0.574   0.113   0.000   0.688
  101        0.568   0.115   0.000   0.684
  102        0.574   0.113   0.000   0.688
  103        0.568   0.115   0.000   0.684
  104        0.574   0.113   0.000   0.688
  105        0.614   0.114   0.000   0.727
  106        0.539   0.124   0.000   0.663
  107        0.530   0.107   0.000   0.636
  108        0.528   0.101   0.000   0.629
  109        0.614   0.114   0.000   0.727
  110        0.528   0.121   0.000   0.649
  111        0.530   0.107   0.000   0.636
  112        0.519   0.099   0.000   0.618
  113        0.614   0.114   0.000   0.727
  114        0.513   0.118   0.000   0.631
  115        0.530   0.107   0.000   0.636
  116        0.507   0.097   0.000   0.603
  117        0.594   0.119   0.000   0.713
  118        0.630   0.110   0.000   0.740
  119        0.540   0.108   0.000   0.648
  120        0.523   0.110   0.000   0.633
  121        0.594   0.119   0.000   0.713
  122        0.630   0.110   0.000   0.740
  123        0.540   0.108   0.000   0.648
  124        0.523   0.110   0.000   0.633
  125        0.594   0.119   0.000   0.713
  126        0.630   0.110   0.000   0.740
  127        0.540   0.108   0.000   0.648
  128        0.523   0.110   0.000   0.633
  129        0.568   0.115   0.000   0.684
  130        0.574   0.113   0.000   0.688
  131        0.568   0.115   0.000   0.684
  132        0.574   0.113   0.000   0.688
  133        0.568   0.115   0.000   0.684
  134        0.574   0.113   0.000   0.688
  135        0.571   0.115   0.000   0.686
  136        0.416   0.125   0.000   0.541
  137        0.571   0.115   0.000   0.686
  138        0.323   0.107   0.000   0.430
  139        0.571   0.115   0.000   0.686
  140        0.416   0.125   0.000   0.541
  141        0.571   0.115   0.000   0.686
  142        0.415   0.125   0.000   0.541
  143        0.571   0.115   0.000   0.686
  144        0.323   0.107   0.000   0.430
  145        0.571   0.115   0.000   0.686
  146        0.417   0.125   0.000   0.541
  147        0.568   0.115   0.000   0.684
  148        0.574   0.113   0.000   0.688
  149        0.568   0.115   0.000   0.684
  150        0.574   0.113   0.000   0.688
  151        0.568   0.115   0.000   0.684
  152        0.574   0.113   0.000   0.688
  153        0.614   0.114   0.000   0.727
  154        0.499   0.115   0.000   0.614
  155        0.530   0.107   0.000   0.636
  156        0.494   0.095   0.000   0.589
  157        0.614   0.114   0.000   0.727
  158        0.562   0.129   0.000   0.692
  159        0.530   0.107   0.000   0.636
  160        0.549   0.104   0.000   0.653
  161        0.614   0.114   0.000   0.727
  162        0.503   0.116   0.000   0.619
  163        0.530   0.107   0.000   0.636
  164        0.498   0.095   0.000   0.593
  165        0.594   0.119   0.000   0.713
  166        0.630   0.110   0.000   0.740
  167        0.540   0.108   0.000   0.648
  168        0.523   0.110   0.000   0.633
  169        0.594   0.119   0.000   0.713
  170        0.630   0.110   0.000   0.740
  171        0.540   0.108   0.000   0.648
  172        0.523   0.110   0.000   0.633
  173        0.594   0.119   0.000   0.713
  174        0.630   0.110   0.000   0.740
  175        0.540   0.108   0.000   0.648
  176        0.523   0.110   0.000   0.633
  177        0.568   0.115   0.000   0.684
  178        0.574   0.113   0.000   0.688
  179        0.571   0.115   0.000   0.686
  180        0.353   0.114   0.000   0.467
  181        0.568   0.115   0.000   0.684
  182        0.574   0.113   0.000   0.688
  183        0.571   0.115   0.000   0.686
  184        0.375   0.117   0.000   0.491
  185        0.571   0.115   0.000   0.686
  186        0.340   0.111   0.000   0.451
  187        0.568   0.115   0.000   0.684
  188        0.574   0.113   0.000   0.688
  189        0.571   0.115   0.000   0.686
  190        0.318   0.108   0.000   0.426
  191        0.568   0.115   0.000   0.684
  192        0.574   0.113   0.000   0.688
  193        1.585   3.643   0.000   5.228
  194        1.344   3.776   0.000   5.120
  195        1.584   3.661   0.000   5.246
  196        1.580   3.654   0.000   5.234
  197        1.585   3.643   0.000   5.228
  198        1.434   3.776   0.000   5.210
  199        1.584   3.661   0.000   5.246
  200        1.580   3.654   0.000   5.234
  201        1.585   3.643   0.000   5.228
  202        1.535   3.781   0.000   5.317
  203        1.584   3.661   0.000   5.246
  204        1.580   3.654   0.000   5.234
  205        1.581   3.659   0.000   5.240
  206        1.587   3.636   0.000   5.222
  207        1.582   3.665   0.000   5.248
  208        1.377   3.243   0.000   4.620
  209        1.581   3.659   0.000   5.240
  210        1.587   3.636   0.000   5.222
  211        1.582   3.665   0.000   5.248
  212        1.193   3.488   0.000   4.681
  213        1.581   3.659   0.000   5.240
  214        1.587   3.636   0.000   5.222
  215        1.582   3.665   0.000   5.248
  216        1.344   3.326   0.000   4.670
  217        1.585   3.643   0.000   5.228
  218        1.478   3.782   0.000   5.260
  219        1.584   3.661   0.000   5.246
  220        1.580   3.654   0.000   5.234
  221        1.585   3.643   0.000   5.228
  222        1.460   3.781   0.000   5.240
  223        1.584   3.661   0.000   5.246
  224        1.580   3.654   0.000   5.234
  225        1.585   3.643   0.000   5.228
  226        1.277   3.771   0.000   5.049
  227        1.584   3.661   0.000   5.245
  228        1.580   3.654   0.000   5.234
  229        1.581   3.659   0.000   5.240
  230        1.587   3.636   0.000   5.222
  231        1.582   3.665   0.000   5.248
  232        1.338   3.160   0.000   4.498
  233        1.581   3.659   0.000   5.240
  234        1.587   3.636   0.000   5.222
  235        1.582   3.665   0.000   5.248
  236        1.217   3.454   0.000   4.671
  237        1.581   3.659   0.000   5.240
  238        1.587   3.636   0.000   5.222
  239        1.582   3.665   0.000   5.248
  240        1.394   3.191   0.000   4.585
  241        1.585   3.643   0.000   5.228
  242        1.347   3.774   0.000   5.120
  243        1.584   3.661   0.000   5.245
  244        1.580   3.654   0.000   5.234
  245        1.585   3.643   0.000   5.228
  246        1.248   3.771   0.000   5.019
  247        1.584   3.661   0.000   5.245
  248        1.580   3.654   0.000   5.234
  249        1.585   3.643   0.000   5.228
  250        1.125   3.766   0.000   4.891
  251        1.584   3.661   0.000   5.245
  252        1.580   3.654   0.000   5.234
  253        1.581   3.659   0.000   5.240
  254        1.587   3.636   0.000   5.222
  255        1.582   3.665   0.000   5.248
  256        1.224   3.286   0.000   4.510
  257        1.581   3.659   0.000   5.240
  258        1.587   3.636   0.000   5.222
  259        1.582   3.665   0.000   5.248
  260        1.216   3.199   0.000   4.415
  261        1.581   3.659   0.000   5.240
  262        1.587   3.636   0.000   5.222
  263        1.582   3.665   0.000   5.248
  264        1.262   3.465   0.000   4.727
  265        1.585   3.643   0.000   5.228
  266        1.010   3.760   0.000   4.769
  267        1.584   3.661   0.000   5.245
  268        1.580   3.654   0.000   5.234
  269        1.585   3.643   0.000   5.228
  270        1.552   3.782   0.000   5.334
  271        1.584   3.661   0.000   5.246
  272        1.580   3.654   0.000   5.234
  273        1.585   3.643   0.000   5.228
  274        1.041   3.761   0.000   4.803
  275        1.584   3.661   0.000   5.245
  276        1.580   3.654   0.000   5.234
  277        1.581   3.659   0.000   5.240
  278        1.587   3.636   0.000   5.222
  279        1.582   3.665   0.000   5.248
  280        1.296   3.657   0.000   4.953
  281        1.581   3.659   0.000   5.240
  282        1.587   3.636   0.000   5.222
  283        1.582   3.665   0.000   5.248
  284        1.203   3.243   0.000   4.446
  285        1.581   3.659   0.000   5.240
  286        1.587   3.636   0.000   5.222
  287        1.582   3.665   0.000   5.248
  288        1.368   3.626   0.000   4.994
--------------------------------------------------
tot        248.814 370.302   0.000 619.116
 

 total amount of memory used by VASP MPI-rank0    79214. kBytes
=======================================================================

   base      :      30000. kBytes
   nonlr-proj:       1220. kBytes
   fftplans  :      10983. kBytes
   grid      :      19058. kBytes
   one-center:         23. kBytes
   wavefun   :      17930. kBytes
 
  
  
 General timing and accounting informations for this job:
 ========================================================
  
                  Total CPU time used (sec):     2607.549
                            User time (sec):     2581.865
                          System time (sec):       25.684
                         Elapsed time (sec):     2637.518
  
                   Maximum memory used (kb):      707148.
                   Average memory used (kb):           0.
  
                          Minor page faults:      2043087
                          Major page faults:            0
                 Voluntary context switches:        30896
