  93  93   0   0
  0.1016658E+02  0.9814900E-09  0.9814900E-09  0.9814900E-09  0.5000000E-15
  1.000000000000000E-004
  CAR 
 ice                                     
      9.67816991    -25.45657026  301     -1.91617998      1.00000000
    -25.457  0.0000E+00  0.0000E+00
    -25.339  0.0000E+00  0.0000E+00
    -25.222  0.0000E+00  0.0000E+00
    -25.105  0.0000E+00  0.0000E+00
    -24.988  0.0000E+00  0.0000E+00
    -24.871  0.0000E+00  0.0000E+00
    -24.754  0.0000E+00  0.0000E+00
    -24.637  0.0000E+00  0.0000E+00
    -24.520  0.0000E+00  0.0000E+00
    -24.403  0.0000E+00  0.0000E+00
    -24.285  0.3391E-02  0.3971E-03
    -24.168  0.3182E-01  0.4124E-02
    -24.051  0.3242E+00  0.4210E-01
    -23.934  0.2763E+01  0.3657E+00
    -23.817  0.8829E+01  0.1400E+01
    -23.700  0.4513E+01  0.1928E+01
    -23.583  0.1197E+01  0.2069E+01
    -23.466  0.4495E+01  0.2595E+01
    -23.348  0.1057E+02  0.3833E+01
    -23.231  0.1169E+02  0.5202E+01
    -23.114  0.1687E+02  0.7178E+01
    -22.997  0.3083E+02  0.1079E+02
    -22.880  0.2239E+02  0.1342E+02
    -22.763  0.8667E+01  0.1443E+02
    -22.646  0.1499E+02  0.1619E+02
    -22.529  0.1743E+02  0.1824E+02
    -22.412  0.1953E+02  0.2053E+02
    -22.294  0.1935E+02  0.2279E+02
    -22.177  0.2139E+02  0.2530E+02
    -22.060  0.2196E+02  0.2788E+02
    -21.943  0.2664E+02  0.3100E+02
    -21.826  0.2521E+02  0.3396E+02
    -21.709  0.2430E+02  0.3680E+02
    -21.592  0.2756E+02  0.4004E+02
    -21.475  0.1453E+02  0.4175E+02
    -21.358  0.7406E+01  0.4262E+02
    -21.240  0.1908E+02  0.4486E+02
    -21.123  0.2241E+02  0.4749E+02
    -21.006  0.2496E+02  0.5041E+02
    -20.889  0.1693E+02  0.5240E+02
    -20.772  0.1269E+02  0.5389E+02
    -20.655  0.1106E+02  0.5519E+02
    -20.538  0.6513E+01  0.5595E+02
    -20.421  0.5024E+01  0.5654E+02
    -20.303  0.9072E+01  0.5761E+02
    -20.186  0.3663E+01  0.5804E+02
    -20.069  0.5035E+01  0.5863E+02
    -19.952  0.9513E+01  0.5975E+02
    -19.835  0.7747E+01  0.6065E+02
    -19.718  0.8849E+01  0.6169E+02
    -19.601  0.2328E+01  0.6197E+02
    -19.484  0.2638E+00  0.6200E+02
    -19.367  0.0000E+00  0.6200E+02
    -19.249  0.0000E+00  0.6200E+02
    -19.132  0.0000E+00  0.6200E+02
    -19.015  0.0000E+00  0.6200E+02
    -18.898  0.0000E+00  0.6200E+02
    -18.781  0.0000E+00  0.6200E+02
    -18.664  0.0000E+00  0.6200E+02
    -18.547  0.0000E+00  0.6200E+02
    -18.430  0.0000E+00  0.6200E+02
    -18.313  0.0000E+00  0.6200E+02
    -18.195  0.0000E+00  0.6200E+02
    -18.078  0.0000E+00  0.6200E+02
    -17.961  0.0000E+00  0.6200E+02
    -17.844  0.0000E+00  0.6200E+02
    -17.727  0.0000E+00  0.6200E+02
    -17.610  0.0000E+00  0.6200E+02
    -17.493  0.0000E+00  0.6200E+02
    -17.376  0.0000E+00  0.6200E+02
    -17.258  0.0000E+00  0.6200E+02
    -17.141  0.0000E+00  0.6200E+02
    -17.024  0.0000E+00  0.6200E+02
    -16.907  0.0000E+00  0.6200E+02
    -16.790  0.0000E+00  0.6200E+02
    -16.673  0.0000E+00  0.6200E+02
    -16.556  0.0000E+00  0.6200E+02
    -16.439  0.0000E+00  0.6200E+02
    -16.322  0.0000E+00  0.6200E+02
    -16.204  0.0000E+00  0.6200E+02
    -16.087  0.0000E+00  0.6200E+02
    -15.970  0.0000E+00  0.6200E+02
    -15.853  0.0000E+00  0.6200E+02
    -15.736  0.0000E+00  0.6200E+02
    -15.619  0.0000E+00  0.6200E+02
    -15.502  0.0000E+00  0.6200E+02
    -15.385  0.0000E+00  0.6200E+02
    -15.267  0.0000E+00  0.6200E+02
    -15.150  0.0000E+00  0.6200E+02
    -15.033  0.0000E+00  0.6200E+02
    -14.916  0.0000E+00  0.6200E+02
    -14.799  0.0000E+00  0.6200E+02
    -14.682  0.0000E+00  0.6200E+02
    -14.565  0.0000E+00  0.6200E+02
    -14.448  0.0000E+00  0.6200E+02
    -14.331  0.0000E+00  0.6200E+02
    -14.213  0.0000E+00  0.6200E+02
    -14.096  0.0000E+00  0.6200E+02
    -13.979  0.0000E+00  0.6200E+02
    -13.862  0.0000E+00  0.6200E+02
    -13.745  0.0000E+00  0.6200E+02
    -13.628  0.0000E+00  0.6200E+02
    -13.511  0.0000E+00  0.6200E+02
    -13.394  0.0000E+00  0.6200E+02
    -13.277  0.0000E+00  0.6200E+02
    -13.159  0.0000E+00  0.6200E+02
    -13.042  0.0000E+00  0.6200E+02
    -12.925  0.0000E+00  0.6200E+02
    -12.808  0.0000E+00  0.6200E+02
    -12.691  0.0000E+00  0.6200E+02
    -12.574  0.0000E+00  0.6200E+02
    -12.457  0.0000E+00  0.6200E+02
    -12.340  0.4526E-02  0.6200E+02
    -12.222  0.4245E-01  0.6201E+02
    -12.105  0.4310E+00  0.6206E+02
    -11.988  0.3467E+01  0.6246E+02
    -11.871  0.9156E+01  0.6353E+02
    -11.754  0.5204E+01  0.6414E+02
    -11.637  0.9176E+01  0.6522E+02
    -11.520  0.1450E+02  0.6692E+02
    -11.403  0.7811E+01  0.6784E+02
    -11.286  0.1496E+01  0.6801E+02
    -11.168  0.2199E+01  0.6827E+02
    -11.051  0.9325E+01  0.6937E+02
    -10.934  0.1413E+02  0.7102E+02
    -10.817  0.2037E+02  0.7341E+02
    -10.700  0.1874E+02  0.7560E+02
    -10.583  0.1612E+02  0.7749E+02
    -10.466  0.7440E+01  0.7836E+02
    -10.349  0.1749E+02  0.8041E+02
    -10.232  0.3304E+02  0.8429E+02
    -10.114  0.2601E+02  0.8734E+02
     -9.997  0.1897E+02  0.8956E+02
     -9.880  0.1711E+02  0.9157E+02
     -9.763  0.1518E+02  0.9335E+02
     -9.646  0.2496E+02  0.9627E+02
     -9.529  0.1514E+02  0.9805E+02
     -9.412  0.1387E+02  0.9967E+02
     -9.295  0.1582E+02  0.1015E+03
     -9.177  0.1095E+02  0.1028E+03
     -9.060  0.2577E+02  0.1058E+03
     -8.943  0.3287E+02  0.1097E+03
     -8.826  0.1755E+02  0.1117E+03
     -8.709  0.1110E+02  0.1130E+03
     -8.592  0.1645E+02  0.1150E+03
     -8.475  0.1744E+02  0.1170E+03
     -8.358  0.1694E+02  0.1190E+03
     -8.241  0.1480E+02  0.1207E+03
     -8.123  0.1632E+02  0.1227E+03
     -8.006  0.1599E+02  0.1245E+03
     -7.889  0.1262E+02  0.1260E+03
     -7.772  0.1472E+02  0.1277E+03
     -7.655  0.2441E+02  0.1306E+03
     -7.538  0.2801E+02  0.1339E+03
     -7.421  0.2482E+02  0.1368E+03
     -7.304  0.2202E+02  0.1394E+03
     -7.187  0.1604E+02  0.1413E+03
     -7.069  0.2004E+02  0.1436E+03
     -6.952  0.2092E+02  0.1461E+03
     -6.835  0.2607E+02  0.1491E+03
     -6.718  0.2823E+02  0.1524E+03
     -6.601  0.2390E+02  0.1552E+03
     -6.484  0.2217E+02  0.1578E+03
     -6.367  0.2007E+02  0.1602E+03
     -6.250  0.1524E+02  0.1620E+03
     -6.132  0.1632E+02  0.1639E+03
     -6.015  0.2294E+02  0.1666E+03
     -5.898  0.2212E+02  0.1692E+03
     -5.781  0.2075E+02  0.1716E+03
     -5.664  0.1993E+02  0.1740E+03
     -5.547  0.2623E+02  0.1770E+03
     -5.430  0.3251E+02  0.1808E+03
     -5.313  0.3223E+02  0.1846E+03
     -5.196  0.3082E+02  0.1882E+03
     -5.078  0.3155E+02  0.1919E+03
     -4.961  0.2283E+02  0.1946E+03
     -4.844  0.1579E+02  0.1965E+03
     -4.727  0.1117E+02  0.1978E+03
     -4.610  0.8522E+01  0.1988E+03
     -4.493  0.2506E+02  0.2017E+03
     -4.376  0.4470E+02  0.2070E+03
     -4.259  0.5151E+02  0.2130E+03
     -4.141  0.4896E+02  0.2187E+03
     -4.024  0.2948E+02  0.2222E+03
     -3.907  0.3180E+02  0.2259E+03
     -3.790  0.3669E+02  0.2302E+03
     -3.673  0.2688E+02  0.2334E+03
     -3.556  0.2745E+02  0.2366E+03
     -3.439  0.2632E+02  0.2397E+03
     -3.322  0.3032E+02  0.2432E+03
     -3.205  0.2278E+02  0.2459E+03
     -3.087  0.1325E+02  0.2475E+03
     -2.970  0.3969E+01  0.2479E+03
     -2.853  0.4430E+00  0.2480E+03
     -2.736  0.0000E+00  0.2480E+03
     -2.619  0.0000E+00  0.2480E+03
     -2.502  0.0000E+00  0.2480E+03
     -2.385  0.0000E+00  0.2480E+03
     -2.268  0.0000E+00  0.2480E+03
     -2.151  0.0000E+00  0.2480E+03
     -2.033  0.0000E+00  0.2480E+03
     -1.916  0.0000E+00  0.2480E+03
     -1.799  0.0000E+00  0.2480E+03
     -1.682  0.0000E+00  0.2480E+03
     -1.565  0.0000E+00  0.2480E+03
     -1.448  0.0000E+00  0.2480E+03
     -1.331  0.0000E+00  0.2480E+03
     -1.214  0.0000E+00  0.2480E+03
     -1.096  0.0000E+00  0.2480E+03
     -0.979  0.0000E+00  0.2480E+03
     -0.862  0.0000E+00  0.2480E+03
     -0.745  0.0000E+00  0.2480E+03
     -0.628  0.0000E+00  0.2480E+03
     -0.511  0.0000E+00  0.2480E+03
     -0.394  0.0000E+00  0.2480E+03
     -0.277  0.0000E+00  0.2480E+03
     -0.160  0.0000E+00  0.2480E+03
     -0.042  0.5706E-06  0.2480E+03
      0.075  0.1369E-03  0.2480E+03
      0.192  0.1706E-02  0.2480E+03
      0.309  0.1805E-01  0.2480E+03
      0.426  0.1688E+00  0.2480E+03
      0.543  0.9960E+00  0.2481E+03
      0.660  0.2943E+01  0.2485E+03
      0.777  0.5314E+01  0.2491E+03
      0.894  0.5194E+01  0.2497E+03
      1.012  0.2077E+01  0.2500E+03
      1.129  0.3214E+00  0.2500E+03
      1.246  0.4512E-01  0.2500E+03
      1.363  0.1803E+00  0.2500E+03
      1.480  0.9064E+00  0.2501E+03
      1.597  0.2716E+01  0.2504E+03
      1.714  0.5522E+01  0.2511E+03
      1.831  0.5990E+01  0.2518E+03
      1.949  0.4886E+01  0.2524E+03
      2.066  0.6127E+01  0.2531E+03
      2.183  0.5296E+01  0.2537E+03
      2.300  0.4230E+01  0.2542E+03
      2.417  0.5507E+01  0.2549E+03
      2.534  0.6340E+01  0.2556E+03
      2.651  0.5919E+01  0.2563E+03
      2.768  0.6612E+01  0.2571E+03
      2.885  0.7745E+01  0.2580E+03
      3.003  0.8017E+01  0.2589E+03
      3.120  0.8452E+01  0.2599E+03
      3.237  0.8841E+01  0.2609E+03
      3.354  0.9454E+01  0.2620E+03
      3.471  0.9781E+01  0.2632E+03
      3.588  0.1070E+02  0.2644E+03
      3.705  0.1161E+02  0.2658E+03
      3.822  0.1166E+02  0.2672E+03
      3.939  0.1184E+02  0.2686E+03
      4.057  0.1244E+02  0.2700E+03
      4.174  0.1261E+02  0.2715E+03
      4.291  0.1395E+02  0.2731E+03
      4.408  0.1566E+02  0.2750E+03
      4.525  0.1517E+02  0.2768E+03
      4.642  0.1437E+02  0.2784E+03
      4.759  0.1509E+02  0.2802E+03
      4.876  0.1555E+02  0.2820E+03
      4.994  0.1579E+02  0.2839E+03
      5.111  0.1664E+02  0.2858E+03
      5.228  0.1811E+02  0.2880E+03
      5.345  0.1928E+02  0.2902E+03
      5.462  0.2041E+02  0.2926E+03
      5.579  0.2160E+02  0.2951E+03
      5.696  0.2293E+02  0.2978E+03
      5.813  0.2275E+02  0.3005E+03
      5.930  0.2327E+02  0.3032E+03
      6.048  0.2485E+02  0.3061E+03
      6.165  0.2532E+02  0.3091E+03
      6.282  0.2609E+02  0.3122E+03
      6.399  0.2603E+02  0.3152E+03
      6.516  0.2486E+02  0.3181E+03
      6.633  0.2538E+02  0.3211E+03
      6.750  0.2465E+02  0.3240E+03
      6.867  0.2460E+02  0.3269E+03
      6.985  0.2388E+02  0.3297E+03
      7.102  0.2254E+02  0.3323E+03
      7.219  0.2218E+02  0.3349E+03
      7.336  0.2028E+02  0.3373E+03
      7.453  0.1758E+02  0.3394E+03
      7.570  0.1512E+02  0.3411E+03
      7.687  0.1201E+02  0.3426E+03
      7.804  0.7900E+01  0.3435E+03
      7.921  0.3331E+01  0.3439E+03
      8.039  0.8356E+00  0.3440E+03
      8.156  0.1562E+00  0.3440E+03
      8.273  0.1953E-01  0.3440E+03
      8.390  0.1518E-02  0.3440E+03
      8.507  0.0000E+00  0.3440E+03
      8.624  0.0000E+00  0.3440E+03
      8.741  0.0000E+00  0.3440E+03
      8.858  0.0000E+00  0.3440E+03
      8.975  0.0000E+00  0.3440E+03
      9.093  0.0000E+00  0.3440E+03
      9.210  0.0000E+00  0.3440E+03
      9.327  0.0000E+00  0.3440E+03
      9.444  0.0000E+00  0.3440E+03
      9.561  0.0000E+00  0.3440E+03
      9.678  0.0000E+00  0.3440E+03
