       N       E                     dE             d eps       ncg     rms          rms(c)
RMM:   1     0.332178199961E+04    0.33218E+04   -0.74368E+04 86688   0.878E+02
RMM:   2     0.105191040675E+04   -0.22699E+04   -0.24369E+04 86688   0.253E+02
RMM:   3     0.880264898744E+02   -0.96388E+03   -0.10260E+04 86688   0.187E+02
RMM:   4    -0.343573192984E+03   -0.43160E+03   -0.36763E+03 86688   0.130E+02
RMM:   5    -0.451176614739E+03   -0.10760E+03   -0.97980E+02 86688   0.686E+01
RMM:   6    -0.478853109071E+03   -0.27676E+02   -0.25279E+02 86688   0.354E+01
RMM:   7    -0.486218474641E+03   -0.73654E+01   -0.70552E+01 86688   0.180E+01
RMM:   8    -0.488431536468E+03   -0.22131E+01   -0.20863E+01 86688   0.963E+00
RMM:   9    -0.489303122945E+03   -0.87159E+00   -0.85586E+00221718   0.511E+00
RMM:  10    -0.489424162326E+03   -0.12104E+00   -0.11407E+00235550   0.148E+00
RMM:  11    -0.489426404561E+03   -0.22422E-02   -0.38462E-02221809   0.315E-01
RMM:  12    -0.489427043654E+03   -0.63909E-03   -0.62683E-03222955   0.816E-02    0.396E+01
RMM:  13    -0.448301658071E+03    0.41125E+02   -0.14546E+02209518   0.242E+01    0.152E+01
RMM:  14    -0.447038582539E+03    0.12631E+01   -0.54035E+00217585   0.416E+00    0.959E+00
RMM:  15    -0.446479584364E+03    0.55900E+00   -0.16497E+00215349   0.355E+00    0.135E+00
RMM:  16    -0.446427947889E+03    0.51636E-01   -0.29283E-01221740   0.963E-01    0.544E-01
RMM:  17    -0.446432501286E+03   -0.45534E-02   -0.49247E-02209872   0.417E-01    0.330E-01
RMM:  18    -0.446428180556E+03    0.43207E-02   -0.12364E-02216807   0.237E-01    0.107E-01
RMM:  19    -0.446426993256E+03    0.11873E-02   -0.33642E-03217722   0.956E-02    0.394E-02
RMM:  20    -0.446426827669E+03    0.16559E-03   -0.62316E-04219833   0.403E-02    0.219E-02
RMM:  21    -0.446426798160E+03    0.29508E-04   -0.10415E-04220818   0.172E-02    0.936E-03
RMM:  22    -0.446426792056E+03    0.61044E-05   -0.21977E-05209054   0.863E-03    0.370E-03
RMM:  23    -0.446426791568E+03    0.48798E-06   -0.29691E-06171203   0.326E-03
   1 F= -.44948249E+03 E0= -.44948249E+03  d E =-.590481E-10
