  93  93   0   0
  0.1016658E+02  0.9814900E-09  0.9814900E-09  0.9814900E-09  0.5000000E-15
  1.000000000000000E-004
  CAR 
 ice                                     
      9.60066835    -25.18133372  301     -1.76133910      1.00000000
    -25.181  0.0000E+00  0.0000E+00
    -25.065  0.0000E+00  0.0000E+00
    -24.949  0.0000E+00  0.0000E+00
    -24.834  0.0000E+00  0.0000E+00
    -24.718  0.0000E+00  0.0000E+00
    -24.602  0.0000E+00  0.0000E+00
    -24.486  0.0000E+00  0.0000E+00
    -24.370  0.0000E+00  0.0000E+00
    -24.254  0.0000E+00  0.0000E+00
    -24.138  0.0000E+00  0.0000E+00
    -24.022  0.3372E-02  0.3910E-03
    -23.906  0.3289E-01  0.4204E-02
    -23.790  0.3260E+00  0.4200E-01
    -23.674  0.2785E+01  0.3648E+00
    -23.558  0.1052E+02  0.1584E+01
    -23.442  0.1585E+02  0.3422E+01
    -23.326  0.1728E+02  0.5426E+01
    -23.210  0.6163E+01  0.6140E+01
    -23.094  0.1280E+02  0.7625E+01
    -22.978  0.3360E+02  0.1153E+02
    -22.863  0.2666E+02  0.1462E+02
    -22.747  0.1320E+02  0.1615E+02
    -22.631  0.1612E+02  0.1803E+02
    -22.515  0.2130E+02  0.2050E+02
    -22.399  0.1594E+02  0.2235E+02
    -22.283  0.2159E+02  0.2486E+02
    -22.167  0.2691E+02  0.2798E+02
    -22.051  0.2480E+02  0.3086E+02
    -21.935  0.2674E+02  0.3396E+02
    -21.819  0.2278E+02  0.3660E+02
    -21.703  0.1960E+02  0.3888E+02
    -21.587  0.1505E+02  0.4063E+02
    -21.471  0.1693E+02  0.4260E+02
    -21.355  0.1965E+02  0.4488E+02
    -21.239  0.1682E+02  0.4683E+02
    -21.123  0.1551E+02  0.4863E+02
    -21.007  0.1761E+02  0.5068E+02
    -20.892  0.1132E+02  0.5199E+02
    -20.776  0.9384E+01  0.5308E+02
    -20.660  0.8356E+01  0.5405E+02
    -20.544  0.1042E+02  0.5527E+02
    -20.428  0.1567E+02  0.5708E+02
    -20.312  0.7911E+01  0.5800E+02
    -20.196  0.7085E+01  0.5882E+02
    -20.080  0.8054E+01  0.5976E+02
    -19.964  0.1884E+01  0.5998E+02
    -19.848  0.5601E+00  0.6004E+02
    -19.732  0.2912E+01  0.6038E+02
    -19.616  0.8885E+01  0.6141E+02
    -19.500  0.4383E+01  0.6192E+02
    -19.384  0.6079E+00  0.6199E+02
    -19.268  0.6223E-01  0.6200E+02
    -19.152  0.0000E+00  0.6200E+02
    -19.037  0.0000E+00  0.6200E+02
    -18.921  0.0000E+00  0.6200E+02
    -18.805  0.0000E+00  0.6200E+02
    -18.689  0.0000E+00  0.6200E+02
    -18.573  0.0000E+00  0.6200E+02
    -18.457  0.0000E+00  0.6200E+02
    -18.341  0.0000E+00  0.6200E+02
    -18.225  0.0000E+00  0.6200E+02
    -18.109  0.0000E+00  0.6200E+02
    -17.993  0.0000E+00  0.6200E+02
    -17.877  0.0000E+00  0.6200E+02
    -17.761  0.0000E+00  0.6200E+02
    -17.645  0.0000E+00  0.6200E+02
    -17.529  0.0000E+00  0.6200E+02
    -17.413  0.0000E+00  0.6200E+02
    -17.297  0.0000E+00  0.6200E+02
    -17.181  0.0000E+00  0.6200E+02
    -17.066  0.0000E+00  0.6200E+02
    -16.950  0.0000E+00  0.6200E+02
    -16.834  0.0000E+00  0.6200E+02
    -16.718  0.0000E+00  0.6200E+02
    -16.602  0.0000E+00  0.6200E+02
    -16.486  0.0000E+00  0.6200E+02
    -16.370  0.0000E+00  0.6200E+02
    -16.254  0.0000E+00  0.6200E+02
    -16.138  0.0000E+00  0.6200E+02
    -16.022  0.0000E+00  0.6200E+02
    -15.906  0.0000E+00  0.6200E+02
    -15.790  0.0000E+00  0.6200E+02
    -15.674  0.0000E+00  0.6200E+02
    -15.558  0.0000E+00  0.6200E+02
    -15.442  0.0000E+00  0.6200E+02
    -15.326  0.0000E+00  0.6200E+02
    -15.210  0.0000E+00  0.6200E+02
    -15.095  0.0000E+00  0.6200E+02
    -14.979  0.0000E+00  0.6200E+02
    -14.863  0.0000E+00  0.6200E+02
    -14.747  0.0000E+00  0.6200E+02
    -14.631  0.0000E+00  0.6200E+02
    -14.515  0.0000E+00  0.6200E+02
    -14.399  0.0000E+00  0.6200E+02
    -14.283  0.0000E+00  0.6200E+02
    -14.167  0.0000E+00  0.6200E+02
    -14.051  0.0000E+00  0.6200E+02
    -13.935  0.0000E+00  0.6200E+02
    -13.819  0.0000E+00  0.6200E+02
    -13.703  0.0000E+00  0.6200E+02
    -13.587  0.0000E+00  0.6200E+02
    -13.471  0.0000E+00  0.6200E+02
    -13.355  0.0000E+00  0.6200E+02
    -13.240  0.0000E+00  0.6200E+02
    -13.124  0.0000E+00  0.6200E+02
    -13.008  0.0000E+00  0.6200E+02
    -12.892  0.0000E+00  0.6200E+02
    -12.776  0.0000E+00  0.6200E+02
    -12.660  0.0000E+00  0.6200E+02
    -12.544  0.0000E+00  0.6200E+02
    -12.428  0.1806E-02  0.6200E+02
    -12.312  0.1654E-01  0.6200E+02
    -12.196  0.1663E+00  0.6202E+02
    -12.080  0.1527E+01  0.6220E+02
    -11.964  0.7422E+01  0.6306E+02
    -11.848  0.7028E+01  0.6387E+02
    -11.732  0.3637E+01  0.6430E+02
    -11.616  0.9020E+01  0.6534E+02
    -11.500  0.8062E+01  0.6628E+02
    -11.384  0.1082E+02  0.6753E+02
    -11.269  0.1297E+02  0.6904E+02
    -11.153  0.1752E+02  0.7107E+02
    -11.037  0.6979E+01  0.7188E+02
    -10.921  0.9958E+00  0.7199E+02
    -10.805  0.6028E+00  0.7207E+02
    -10.689  0.4271E+01  0.7256E+02
    -10.573  0.1460E+02  0.7426E+02
    -10.457  0.2238E+02  0.7685E+02
    -10.341  0.3033E+02  0.8037E+02
    -10.225  0.3172E+02  0.8405E+02
    -10.109  0.2986E+02  0.8752E+02
     -9.993  0.2074E+02  0.8993E+02
     -9.877  0.1793E+02  0.9201E+02
     -9.761  0.1930E+02  0.9425E+02
     -9.645  0.2175E+02  0.9678E+02
     -9.529  0.2206E+02  0.9933E+02
     -9.413  0.1279E+02  0.1008E+03
     -9.298  0.1775E+02  0.1029E+03
     -9.182  0.3393E+02  0.1068E+03
     -9.066  0.3487E+02  0.1109E+03
     -8.950  0.2108E+02  0.1133E+03
     -8.834  0.1550E+02  0.1151E+03
     -8.718  0.7931E+01  0.1160E+03
     -8.602  0.9836E+01  0.1172E+03
     -8.486  0.2107E+02  0.1196E+03
     -8.370  0.2433E+02  0.1225E+03
     -8.254  0.1634E+02  0.1243E+03
     -8.138  0.1205E+02  0.1257E+03
     -8.022  0.1068E+02  0.1270E+03
     -7.906  0.8439E+01  0.1280E+03
     -7.790  0.7937E+01  0.1289E+03
     -7.674  0.1169E+02  0.1303E+03
     -7.558  0.1680E+02  0.1322E+03
     -7.443  0.2599E+02  0.1352E+03
     -7.327  0.2877E+02  0.1386E+03
     -7.211  0.2537E+02  0.1415E+03
     -7.095  0.2053E+02  0.1439E+03
     -6.979  0.2431E+02  0.1467E+03
     -6.863  0.2786E+02  0.1499E+03
     -6.747  0.2884E+02  0.1533E+03
     -6.631  0.2550E+02  0.1562E+03
     -6.515  0.1621E+02  0.1581E+03
     -6.399  0.1490E+02  0.1599E+03
     -6.283  0.1867E+02  0.1620E+03
     -6.167  0.1936E+02  0.1643E+03
     -6.051  0.1540E+02  0.1661E+03
     -5.935  0.1745E+02  0.1681E+03
     -5.819  0.2257E+02  0.1707E+03
     -5.703  0.2444E+02  0.1735E+03
     -5.587  0.2809E+02  0.1768E+03
     -5.472  0.2702E+02  0.1799E+03
     -5.356  0.2403E+02  0.1827E+03
     -5.240  0.2395E+02  0.1855E+03
     -5.124  0.3068E+02  0.1891E+03
     -5.008  0.3556E+02  0.1932E+03
     -4.892  0.2127E+02  0.1957E+03
     -4.776  0.1446E+02  0.1974E+03
     -4.660  0.2323E+02  0.2001E+03
     -4.544  0.3130E+02  0.2037E+03
     -4.428  0.4120E+02  0.2085E+03
     -4.312  0.3925E+02  0.2130E+03
     -4.196  0.3830E+02  0.2175E+03
     -4.080  0.3888E+02  0.2220E+03
     -3.964  0.3437E+02  0.2260E+03
     -3.848  0.3759E+02  0.2303E+03
     -3.732  0.3778E+02  0.2347E+03
     -3.616  0.2905E+02  0.2381E+03
     -3.501  0.3077E+02  0.2417E+03
     -3.385  0.1678E+02  0.2436E+03
     -3.269  0.4025E+01  0.2441E+03
     -3.153  0.6859E+01  0.2449E+03
     -3.037  0.1320E+02  0.2464E+03
     -2.921  0.1058E+02  0.2477E+03
     -2.805  0.2652E+01  0.2480E+03
     -2.689  0.2836E+00  0.2480E+03
     -2.573  0.0000E+00  0.2480E+03
     -2.457  0.0000E+00  0.2480E+03
     -2.341  0.0000E+00  0.2480E+03
     -2.225  0.0000E+00  0.2480E+03
     -2.109  0.0000E+00  0.2480E+03
     -1.993  0.0000E+00  0.2480E+03
     -1.877  0.0000E+00  0.2480E+03
     -1.761  0.0000E+00  0.2480E+03
     -1.646  0.0000E+00  0.2480E+03
     -1.530  0.0000E+00  0.2480E+03
     -1.414  0.0000E+00  0.2480E+03
     -1.298  0.0000E+00  0.2480E+03
     -1.182  0.0000E+00  0.2480E+03
     -1.066  0.0000E+00  0.2480E+03
     -0.950  0.0000E+00  0.2480E+03
     -0.834  0.0000E+00  0.2480E+03
     -0.718  0.0000E+00  0.2480E+03
     -0.602  0.0000E+00  0.2480E+03
     -0.486  0.0000E+00  0.2480E+03
     -0.370  0.0000E+00  0.2480E+03
     -0.254  0.0000E+00  0.2480E+03
     -0.138  0.0000E+00  0.2480E+03
     -0.022  0.0000E+00  0.2480E+03
      0.094  0.0000E+00  0.2480E+03
      0.210  0.0000E+00  0.2480E+03
      0.325  0.7875E-04  0.2480E+03
      0.441  0.9436E-03  0.2480E+03
      0.557  0.9519E-02  0.2480E+03
      0.673  0.8757E-01  0.2480E+03
      0.789  0.5021E+00  0.2481E+03
      0.905  0.1311E+01  0.2482E+03
      1.021  0.2211E+01  0.2485E+03
      1.137  0.3185E+01  0.2488E+03
      1.253  0.3657E+01  0.2493E+03
      1.369  0.3277E+01  0.2497E+03
      1.485  0.2380E+01  0.2499E+03
      1.601  0.1965E+01  0.2502E+03
      1.717  0.2836E+01  0.2505E+03
      1.833  0.4425E+01  0.2510E+03
      1.949  0.5069E+01  0.2516E+03
      2.065  0.5014E+01  0.2522E+03
      2.181  0.5621E+01  0.2528E+03
      2.296  0.5836E+01  0.2535E+03
      2.412  0.6247E+01  0.2542E+03
      2.528  0.6975E+01  0.2550E+03
      2.644  0.7323E+01  0.2559E+03
      2.760  0.7309E+01  0.2567E+03
      2.876  0.7438E+01  0.2576E+03
      2.992  0.7466E+01  0.2585E+03
      3.108  0.7981E+01  0.2594E+03
      3.224  0.8284E+01  0.2603E+03
      3.340  0.8760E+01  0.2614E+03
      3.456  0.9842E+01  0.2625E+03
      3.572  0.1086E+02  0.2638E+03
      3.688  0.1181E+02  0.2651E+03
      3.804  0.1137E+02  0.2665E+03
      3.920  0.1165E+02  0.2678E+03
      4.036  0.1330E+02  0.2694E+03
      4.151  0.1374E+02  0.2710E+03
      4.267  0.1340E+02  0.2725E+03
      4.383  0.1314E+02  0.2740E+03
      4.499  0.1419E+02  0.2757E+03
      4.615  0.1558E+02  0.2775E+03
      4.731  0.1541E+02  0.2793E+03
      4.847  0.1524E+02  0.2810E+03
      4.963  0.1570E+02  0.2829E+03
      5.079  0.1675E+02  0.2848E+03
      5.195  0.1790E+02  0.2869E+03
      5.311  0.1916E+02  0.2891E+03
      5.427  0.2020E+02  0.2915E+03
      5.543  0.2101E+02  0.2939E+03
      5.659  0.2172E+02  0.2964E+03
      5.775  0.2278E+02  0.2991E+03
      5.891  0.2349E+02  0.3018E+03
      6.007  0.2449E+02  0.3046E+03
      6.122  0.2584E+02  0.3076E+03
      6.238  0.2601E+02  0.3106E+03
      6.354  0.2586E+02  0.3137E+03
      6.470  0.2537E+02  0.3166E+03
      6.586  0.2562E+02  0.3196E+03
      6.702  0.2508E+02  0.3225E+03
      6.818  0.2603E+02  0.3255E+03
      6.934  0.2596E+02  0.3285E+03
      7.050  0.2352E+02  0.3312E+03
      7.166  0.2069E+02  0.3337E+03
      7.282  0.1980E+02  0.3360E+03
      7.398  0.1930E+02  0.3382E+03
      7.514  0.1719E+02  0.3402E+03
      7.630  0.1425E+02  0.3418E+03
      7.746  0.1056E+02  0.3431E+03
      7.862  0.5740E+01  0.3437E+03
      7.978  0.1789E+01  0.3439E+03
      8.093  0.3677E+00  0.3440E+03
      8.209  0.4558E-01  0.3440E+03
      8.325  0.3224E-02  0.3440E+03
      8.441  0.0000E+00  0.3440E+03
      8.557  0.0000E+00  0.3440E+03
      8.673  0.0000E+00  0.3440E+03
      8.789  0.0000E+00  0.3440E+03
      8.905  0.0000E+00  0.3440E+03
      9.021  0.0000E+00  0.3440E+03
      9.137  0.0000E+00  0.3440E+03
      9.253  0.0000E+00  0.3440E+03
      9.369  0.0000E+00  0.3440E+03
      9.485  0.0000E+00  0.3440E+03
      9.601  0.0000E+00  0.3440E+03
