       N       E                     dE             d eps       ncg     rms          rms(c)
RMM:   1     0.332761837529E+04    0.33276E+04   -0.74388E+04 86688   0.878E+02
RMM:   2     0.105477331186E+04   -0.22728E+04   -0.24407E+04 86688   0.253E+02
RMM:   3     0.899541726794E+02   -0.96482E+03   -0.10278E+04 86688   0.187E+02
RMM:   4    -0.343404078680E+03   -0.43336E+03   -0.36865E+03 86688   0.131E+02
RMM:   5    -0.451255259568E+03   -0.10785E+03   -0.98307E+02 86688   0.687E+01
RMM:   6    -0.478995933309E+03   -0.27741E+02   -0.25356E+02 86688   0.355E+01
RMM:   7    -0.486381290577E+03   -0.73854E+01   -0.70755E+01 86688   0.181E+01
RMM:   8    -0.488601008967E+03   -0.22197E+01   -0.20931E+01 86688   0.965E+00
RMM:   9    -0.489475893779E+03   -0.87488E+00   -0.85912E+00221704   0.513E+00
RMM:  10    -0.489597766338E+03   -0.12187E+00   -0.11488E+00235597   0.149E+00
RMM:  11    -0.489600051348E+03   -0.22850E-02   -0.38942E-02221799   0.317E-01
RMM:  12    -0.489600698390E+03   -0.64704E-03   -0.63468E-03222992   0.823E-02    0.396E+01
RMM:  13    -0.448516647262E+03    0.41084E+02   -0.14560E+02210212   0.243E+01    0.151E+01
RMM:  14    -0.447336028968E+03    0.11806E+01   -0.54265E+00218268   0.417E+00    0.955E+00
RMM:  15    -0.446855844555E+03    0.48018E+00   -0.16008E+00214973   0.352E+00    0.133E+00
RMM:  16    -0.446812545041E+03    0.43300E-01   -0.27116E-01221760   0.936E-01    0.514E-01
RMM:  17    -0.446821174132E+03   -0.86291E-02   -0.47319E-02208646   0.417E-01    0.334E-01
RMM:  18    -0.446817873460E+03    0.33007E-02   -0.92400E-03217384   0.213E-01    0.882E-02
RMM:  19    -0.446816903198E+03    0.97026E-03   -0.25694E-03218162   0.892E-02    0.436E-02
RMM:  20    -0.446816733264E+03    0.16993E-03   -0.51235E-04220412   0.380E-02    0.205E-02
RMM:  21    -0.446816698380E+03    0.34884E-04   -0.11300E-04219283   0.182E-02    0.990E-03
RMM:  22    -0.446816692370E+03    0.60098E-05   -0.20281E-05208845   0.817E-03    0.357E-03
RMM:  23    -0.446816692141E+03    0.22947E-06   -0.46021E-06189669   0.439E-03
   1 F= -.44988018E+03 E0= -.44988018E+03  d E =-.450084E-10
