  93  93   0   0
  0.1016658E+02  0.9814900E-09  0.9814900E-09  0.9814900E-09  0.5000000E-15
  1.000000000000000E-004
  CAR 
 ice                                     
      9.57014568    -25.14304831  301     -1.07512081      1.00000000
    -25.143  0.0000E+00  0.0000E+00
    -25.027  0.0000E+00  0.0000E+00
    -24.912  0.0000E+00  0.0000E+00
    -24.796  0.0000E+00  0.0000E+00
    -24.680  0.0000E+00  0.0000E+00
    -24.564  0.0000E+00  0.0000E+00
    -24.449  0.0000E+00  0.0000E+00
    -24.333  0.0000E+00  0.0000E+00
    -24.217  0.0000E+00  0.0000E+00
    -24.102  0.0000E+00  0.0000E+00
    -23.986  0.4507E-02  0.5215E-03
    -23.870  0.4102E-01  0.5268E-02
    -23.755  0.4101E+00  0.5272E-01
    -23.639  0.3579E+01  0.4669E+00
    -23.523  0.1496E+02  0.2198E+01
    -23.407  0.1427E+02  0.3850E+01
    -23.292  0.9886E+01  0.4993E+01
    -23.176  0.9908E+01  0.6140E+01
    -23.060  0.1242E+02  0.7580E+01
    -22.945  0.1641E+02  0.9479E+01
    -22.829  0.2042E+02  0.1184E+02
    -22.713  0.3253E+02  0.1561E+02
    -22.597  0.2295E+02  0.1826E+02
    -22.482  0.1840E+02  0.2039E+02
    -22.366  0.2074E+02  0.2280E+02
    -22.250  0.1985E+02  0.2510E+02
    -22.135  0.2949E+02  0.2852E+02
    -22.019  0.2957E+02  0.3194E+02
    -21.903  0.2749E+02  0.3513E+02
    -21.787  0.3055E+02  0.3866E+02
    -21.672  0.2279E+02  0.4131E+02
    -21.556  0.1094E+02  0.4258E+02
    -21.440  0.1829E+02  0.4470E+02
    -21.325  0.2532E+02  0.4764E+02
    -21.209  0.2859E+02  0.5095E+02
    -21.093  0.1851E+02  0.5309E+02
    -20.977  0.6769E+01  0.5388E+02
    -20.862  0.1262E+01  0.5403E+02
    -20.746  0.2943E+01  0.5437E+02
    -20.630  0.9327E+01  0.5545E+02
    -20.515  0.8277E+01  0.5641E+02
    -20.399  0.9657E+01  0.5753E+02
    -20.283  0.3574E+01  0.5794E+02
    -20.167  0.5560E+00  0.5801E+02
    -20.052  0.1018E+01  0.5813E+02
    -19.936  0.6055E+01  0.5883E+02
    -19.820  0.7987E+01  0.5976E+02
    -19.705  0.1872E+01  0.5997E+02
    -19.589  0.2104E+00  0.6000E+02
    -19.473  0.0000E+00  0.6000E+02
    -19.358  0.0000E+00  0.6000E+02
    -19.242  0.4017E-02  0.6000E+02
    -19.126  0.3653E-01  0.6000E+02
    -19.010  0.3611E+00  0.6005E+02
    -18.895  0.2951E+01  0.6039E+02
    -18.779  0.8900E+01  0.6142E+02
    -18.663  0.4358E+01  0.6192E+02
    -18.548  0.6052E+00  0.6199E+02
    -18.432  0.6222E-01  0.6200E+02
    -18.316  0.0000E+00  0.6200E+02
    -18.200  0.0000E+00  0.6200E+02
    -18.085  0.0000E+00  0.6200E+02
    -17.969  0.0000E+00  0.6200E+02
    -17.853  0.0000E+00  0.6200E+02
    -17.738  0.0000E+00  0.6200E+02
    -17.622  0.0000E+00  0.6200E+02
    -17.506  0.0000E+00  0.6200E+02
    -17.390  0.0000E+00  0.6200E+02
    -17.275  0.0000E+00  0.6200E+02
    -17.159  0.0000E+00  0.6200E+02
    -17.043  0.0000E+00  0.6200E+02
    -16.928  0.0000E+00  0.6200E+02
    -16.812  0.0000E+00  0.6200E+02
    -16.696  0.0000E+00  0.6200E+02
    -16.580  0.0000E+00  0.6200E+02
    -16.465  0.0000E+00  0.6200E+02
    -16.349  0.0000E+00  0.6200E+02
    -16.233  0.0000E+00  0.6200E+02
    -16.118  0.0000E+00  0.6200E+02
    -16.002  0.0000E+00  0.6200E+02
    -15.886  0.0000E+00  0.6200E+02
    -15.770  0.0000E+00  0.6200E+02
    -15.655  0.0000E+00  0.6200E+02
    -15.539  0.0000E+00  0.6200E+02
    -15.423  0.0000E+00  0.6200E+02
    -15.308  0.0000E+00  0.6200E+02
    -15.192  0.0000E+00  0.6200E+02
    -15.076  0.0000E+00  0.6200E+02
    -14.961  0.0000E+00  0.6200E+02
    -14.845  0.0000E+00  0.6200E+02
    -14.729  0.0000E+00  0.6200E+02
    -14.613  0.0000E+00  0.6200E+02
    -14.498  0.0000E+00  0.6200E+02
    -14.382  0.0000E+00  0.6200E+02
    -14.266  0.0000E+00  0.6200E+02
    -14.151  0.0000E+00  0.6200E+02
    -14.035  0.0000E+00  0.6200E+02
    -13.919  0.0000E+00  0.6200E+02
    -13.803  0.0000E+00  0.6200E+02
    -13.688  0.0000E+00  0.6200E+02
    -13.572  0.0000E+00  0.6200E+02
    -13.456  0.0000E+00  0.6200E+02
    -13.341  0.0000E+00  0.6200E+02
    -13.225  0.0000E+00  0.6200E+02
    -13.109  0.0000E+00  0.6200E+02
    -12.993  0.0000E+00  0.6200E+02
    -12.878  0.0000E+00  0.6200E+02
    -12.762  0.0000E+00  0.6200E+02
    -12.646  0.0000E+00  0.6200E+02
    -12.531  0.0000E+00  0.6200E+02
    -12.415  0.0000E+00  0.6200E+02
    -12.299  0.0000E+00  0.6200E+02
    -12.183  0.0000E+00  0.6200E+02
    -12.068  0.5009E-02  0.6200E+02
    -11.952  0.4554E-01  0.6201E+02
    -11.836  0.4484E+00  0.6206E+02
    -11.721  0.3504E+01  0.6246E+02
    -11.605  0.9119E+01  0.6352E+02
    -11.489  0.4772E+01  0.6407E+02
    -11.373  0.7882E+01  0.6498E+02
    -11.258  0.1716E+02  0.6697E+02
    -11.142  0.8096E+01  0.6791E+02
    -11.026  0.4592E+01  0.6844E+02
    -10.911  0.1567E+02  0.7026E+02
    -10.795  0.2346E+02  0.7297E+02
    -10.679  0.2039E+02  0.7533E+02
    -10.564  0.1120E+02  0.7663E+02
    -10.448  0.1572E+02  0.7845E+02
    -10.332  0.2507E+02  0.8136E+02
    -10.216  0.2780E+02  0.8458E+02
    -10.101  0.2086E+02  0.8700E+02
     -9.985  0.2386E+02  0.8976E+02
     -9.869  0.2423E+02  0.9257E+02
     -9.754  0.2438E+02  0.9540E+02
     -9.638  0.3672E+02  0.9965E+02
     -9.522  0.2846E+02  0.1029E+03
     -9.406  0.1009E+02  0.1041E+03
     -9.291  0.1108E+02  0.1054E+03
     -9.175  0.1626E+02  0.1073E+03
     -9.059  0.1495E+02  0.1090E+03
     -8.944  0.2282E+02  0.1117E+03
     -8.828  0.2875E+02  0.1150E+03
     -8.712  0.2113E+02  0.1174E+03
     -8.596  0.7525E+01  0.1183E+03
     -8.481  0.1470E+02  0.1200E+03
     -8.365  0.1710E+02  0.1220E+03
     -8.249  0.1300E+02  0.1235E+03
     -8.134  0.1195E+02  0.1249E+03
     -8.018  0.9282E+01  0.1260E+03
     -7.902  0.1130E+02  0.1273E+03
     -7.786  0.1891E+02  0.1295E+03
     -7.671  0.1880E+02  0.1316E+03
     -7.555  0.2066E+02  0.1340E+03
     -7.439  0.2225E+02  0.1366E+03
     -7.324  0.2603E+02  0.1396E+03
     -7.208  0.2843E+02  0.1429E+03
     -7.092  0.2533E+02  0.1459E+03
     -6.976  0.2282E+02  0.1485E+03
     -6.861  0.1902E+02  0.1507E+03
     -6.745  0.1904E+02  0.1529E+03
     -6.629  0.2315E+02  0.1556E+03
     -6.514  0.2632E+02  0.1586E+03
     -6.398  0.2074E+02  0.1610E+03
     -6.282  0.1130E+02  0.1624E+03
     -6.167  0.1300E+02  0.1639E+03
     -6.051  0.1834E+02  0.1660E+03
     -5.935  0.1937E+02  0.1682E+03
     -5.819  0.1771E+02  0.1703E+03
     -5.704  0.1773E+02  0.1723E+03
     -5.588  0.2194E+02  0.1749E+03
     -5.472  0.2491E+02  0.1778E+03
     -5.357  0.2721E+02  0.1809E+03
     -5.241  0.2382E+02  0.1837E+03
     -5.125  0.2894E+02  0.1870E+03
     -5.009  0.3078E+02  0.1906E+03
     -4.894  0.2515E+02  0.1935E+03
     -4.778  0.2647E+02  0.1966E+03
     -4.662  0.2714E+02  0.1997E+03
     -4.547  0.2618E+02  0.2027E+03
     -4.431  0.4482E+02  0.2079E+03
     -4.315  0.6325E+02  0.2153E+03
     -4.199  0.4495E+02  0.2205E+03
     -4.084  0.2930E+02  0.2239E+03
     -3.968  0.2697E+02  0.2270E+03
     -3.852  0.2931E+02  0.2304E+03
     -3.737  0.3317E+02  0.2342E+03
     -3.621  0.2241E+02  0.2368E+03
     -3.505  0.2257E+02  0.2395E+03
     -3.389  0.1908E+02  0.2417E+03
     -3.274  0.1661E+02  0.2436E+03
     -3.158  0.1318E+02  0.2451E+03
     -3.042  0.6459E+01  0.2459E+03
     -2.927  0.1008E+01  0.2460E+03
     -2.811  0.1006E+00  0.2460E+03
     -2.695  0.7761E-02  0.2460E+03
     -2.579  0.7812E-01  0.2460E+03
     -2.464  0.7524E+00  0.2461E+03
     -2.348  0.5045E+01  0.2467E+03
     -2.232  0.8622E+01  0.2477E+03
     -2.117  0.2457E+01  0.2480E+03
     -2.001  0.2888E+00  0.2480E+03
     -1.885  0.0000E+00  0.2480E+03
     -1.769  0.0000E+00  0.2480E+03
     -1.654  0.0000E+00  0.2480E+03
     -1.538  0.0000E+00  0.2480E+03
     -1.422  0.0000E+00  0.2480E+03
     -1.307  0.0000E+00  0.2480E+03
     -1.191  0.0000E+00  0.2480E+03
     -1.075  0.0000E+00  0.2480E+03
     -0.960  0.0000E+00  0.2480E+03
     -0.844  0.0000E+00  0.2480E+03
     -0.728  0.0000E+00  0.2480E+03
     -0.612  0.0000E+00  0.2480E+03
     -0.497  0.0000E+00  0.2480E+03
     -0.381  0.0000E+00  0.2480E+03
     -0.265  0.0000E+00  0.2480E+03
     -0.150  0.0000E+00  0.2480E+03
     -0.034  0.0000E+00  0.2480E+03
      0.082  0.0000E+00  0.2480E+03
      0.198  0.0000E+00  0.2480E+03
      0.313  0.3365E-04  0.2480E+03
      0.429  0.4481E-03  0.2480E+03
      0.545  0.4636E-02  0.2480E+03
      0.660  0.4424E-01  0.2480E+03
      0.776  0.3010E+00  0.2480E+03
      0.892  0.9329E+00  0.2481E+03
      1.008  0.1592E+01  0.2483E+03
      1.123  0.2180E+01  0.2486E+03
      1.239  0.2788E+01  0.2489E+03
      1.355  0.3248E+01  0.2493E+03
      1.470  0.3808E+01  0.2497E+03
      1.586  0.4773E+01  0.2503E+03
      1.702  0.5621E+01  0.2509E+03
      1.818  0.5109E+01  0.2515E+03
      1.933  0.3287E+01  0.2519E+03
      2.049  0.3053E+01  0.2523E+03
      2.165  0.5187E+01  0.2529E+03
      2.280  0.7026E+01  0.2537E+03
      2.396  0.7361E+01  0.2545E+03
      2.512  0.6525E+01  0.2553E+03
      2.628  0.6326E+01  0.2560E+03
      2.743  0.6922E+01  0.2568E+03
      2.859  0.8021E+01  0.2577E+03
      2.975  0.8255E+01  0.2587E+03
      3.090  0.8312E+01  0.2597E+03
      3.206  0.8701E+01  0.2607E+03
      3.322  0.9602E+01  0.2618E+03
      3.437  0.9886E+01  0.2629E+03
      3.553  0.9476E+01  0.2640E+03
      3.669  0.1025E+02  0.2652E+03
      3.785  0.1144E+02  0.2665E+03
      3.900  0.1319E+02  0.2681E+03
      4.016  0.1403E+02  0.2697E+03
      4.132  0.1422E+02  0.2713E+03
      4.247  0.1419E+02  0.2730E+03
      4.363  0.1423E+02  0.2746E+03
      4.479  0.1447E+02  0.2763E+03
      4.595  0.1450E+02  0.2780E+03
      4.710  0.1505E+02  0.2797E+03
      4.826  0.1539E+02  0.2815E+03
      4.942  0.1621E+02  0.2834E+03
      5.057  0.1707E+02  0.2854E+03
      5.173  0.1817E+02  0.2875E+03
      5.289  0.1927E+02  0.2897E+03
      5.405  0.2060E+02  0.2921E+03
      5.520  0.2085E+02  0.2945E+03
      5.636  0.2124E+02  0.2970E+03
      5.752  0.2197E+02  0.2995E+03
      5.867  0.2373E+02  0.3023E+03
      5.983  0.2464E+02  0.3051E+03
      6.099  0.2568E+02  0.3081E+03
      6.215  0.2633E+02  0.3111E+03
      6.330  0.2725E+02  0.3143E+03
      6.446  0.2644E+02  0.3174E+03
      6.562  0.2535E+02  0.3203E+03
      6.677  0.2428E+02  0.3231E+03
      6.793  0.2335E+02  0.3258E+03
      6.909  0.2382E+02  0.3286E+03
      7.025  0.2275E+02  0.3312E+03
      7.140  0.2072E+02  0.3336E+03
      7.256  0.1941E+02  0.3359E+03
      7.372  0.1827E+02  0.3380E+03
      7.487  0.1671E+02  0.3399E+03
      7.603  0.1463E+02  0.3416E+03
      7.719  0.1107E+02  0.3429E+03
      7.834  0.6609E+01  0.3437E+03
      7.950  0.2322E+01  0.3439E+03
      8.066  0.4752E+00  0.3440E+03
      8.182  0.5197E-01  0.3440E+03
      8.297  0.3049E-02  0.3440E+03
      8.413  0.0000E+00  0.3440E+03
      8.529  0.0000E+00  0.3440E+03
      8.644  0.0000E+00  0.3440E+03
      8.760  0.0000E+00  0.3440E+03
      8.876  0.0000E+00  0.3440E+03
      8.992  0.0000E+00  0.3440E+03
      9.107  0.0000E+00  0.3440E+03
      9.223  0.0000E+00  0.3440E+03
      9.339  0.0000E+00  0.3440E+03
      9.454  0.0000E+00  0.3440E+03
      9.570  0.0000E+00  0.3440E+03
