<?xml version="1.0" encoding="ISO-8859-1"?>
<modeling>
 <generator>
  <i name="program" type="string">vasp </i>
  <i name="version" type="string">5.4.4.18Apr17-6-g9f103f2a35  </i>
  <i name="subversion" type="string">(build Dec 06 2019 17:20:26) complex            parallel </i>
  <i name="platform" type="string">LinuxIFC </i>
  <i name="date" type="string">2025 07 03 </i>
  <i name="time" type="string">17:38:54 </i>
 </generator>
 <incar>
  <i type="string" name="SYSTEM"> ice</i>
  <i type="int" name="ISTART">     1</i>
  <i type="string" name="PREC">normal</i>
  <i type="string" name="ALGO"> VeryFast</i>
  <i type="int" name="IMIX">     4</i>
  <i type="int" name="MAXMIX">    40</i>
  <i type="int" name="ICHARG">     1</i>
  <i type="int" name="NELM">   500</i>
  <i type="int" name="NELMIN">     4</i>
  <i type="int" name="IBRION">    -1</i>
  <i name="EDIFF">      0.00000100</i>
  <i type="int" name="NSW">     0</i>
  <i type="int" name="ISIF">     2</i>
  <i name="ENCUT">    400.00000000</i>
  <i name="POTIM">      0.50000000</i>
  <i type="string" name="LREAL"> AUTO</i>
  <i type="int" name="ISMEAR">    -1</i>
  <i name="SIGMA">      0.05000000</i>
  <i type="int" name="NWRITE">     0</i>
  <i type="logical" name="LWAVE"> F  </i>
  <i type="logical" name="LCHARG"> F  </i>
  <i type="logical" name="LVTOT"> T  </i>
  <i type="logical" name="LVHAR"> T  </i>
  <v type="int" name="KPOINT_BSE">    -1     0     0     0</v>
  <i type="int" name="NELM">   500</i>
 </incar>
 <structure name="primitive_cell" >
  <crystal>
   <varray name="basis" >
    <v>       9.81490000       0.00000000       0.00000000 </v>
    <v>       0.00000000       9.81490000       0.00000000 </v>
    <v>       0.00000000       0.00000000       9.81490000 </v>
   </varray>
   <i name="volume">    945.49151840 </i>
   <varray name="rec_basis" >
    <v>       0.10188591       0.00000000       0.00000000 </v>
    <v>       0.00000000       0.10188591       0.00000000 </v>
    <v>       0.00000000       0.00000000       0.10188591 </v>
   </varray>
  </crystal>
  <varray name="positions" >
   <v>      -0.41992175       0.38460911       0.13049547 </v>
   <v>      -0.46607811       0.47011483       0.12172819 </v>
   <v>      -0.32152747       0.40687220       0.08189589 </v>
   <v>      -0.38225555       0.37702473       0.29917167 </v>
   <v>       0.47637164       0.23650470       0.11586058 </v>
   <v>       0.46618203       0.14060969       0.09200511 </v>
   <v>      -0.36264964       0.35655891       0.39870809 </v>
   <v>       0.35358893      -0.45648962       0.11275815 </v>
   <v>      -0.16009027       0.39263569       0.02211454 </v>
   <v>      -0.33047815       0.44447727       0.39682422 </v>
   <v>       0.39424039      -0.38151280       0.15811776 </v>
   <v>      -0.19563623       0.39975649      -0.07073378 </v>
   <v>       0.29154856       0.47299922       0.16756972 </v>
   <v>      -0.13892653       0.49410896       0.02345821 </v>
   <v>       0.37455603       0.13440178       0.05815057 </v>
   <v>      -0.34972847       0.32434869      -0.19392658 </v>
   <v>       0.35774078      -0.42984646      -0.04391588 </v>
   <v>      -0.48618631       0.16745662      -0.13299983 </v>
   <v>       0.42935435       0.10503316       0.27520403 </v>
   <v>       0.39042374       0.26745968       0.42104759 </v>
   <v>      -0.39457152      -0.32666150       0.36715300 </v>
   <v>      -0.44255469       0.00997320       0.08945674 </v>
   <v>       0.40941222       0.42243018       0.46817899 </v>
   <v>      -0.06194296       0.25654872       0.15035303 </v>
   <v>      -0.30880600       0.14180583       0.41404192 </v>
   <v>      -0.42548676       0.19109313      -0.20943464 </v>
   <v>       0.34175488       0.36316621       0.44007886 </v>
   <v>       0.46558702      -0.26490336       0.26201999 </v>
   <v>      -0.27970025       0.39280074      -0.24263721 </v>
   <v>       0.41295989       0.11879184       0.37907671 </v>
   <v>      -0.31678876      -0.34634790       0.41884889 </v>
   <v>       0.34579364      -0.39012726      -0.14972440 </v>
   <v>       0.48721943      -0.19315327       0.19920937 </v>
   <v>      -0.43551845       0.05005176       0.41576379 </v>
   <v>      -0.37446332       0.11494259      -0.21522787 </v>
   <v>      -0.32309550       0.46130068      -0.29614871 </v>
   <v>      -0.40179625      -0.30856759      -0.20191138 </v>
   <v>       0.43123822      -0.24493780       0.34911512 </v>
   <v>       0.30998482       0.09806376       0.36380401 </v>
   <v>       0.23183629       0.13718836      -0.04932908 </v>
   <v>      -0.32319738       0.04388817       0.43445476 </v>
   <v>      -0.36255489      -0.37041335      -0.47563908 </v>
   <v>       0.46264251      -0.35977341      -0.24441512 </v>
   <v>       0.01370793       0.21352026       0.18370029 </v>
   <v>      -0.24272280      -0.01778469       0.30407646 </v>
   <v>      -0.39814466      -0.08943963       0.09829820 </v>
   <v>      -0.31023342      -0.08159645       0.12517601 </v>
   <v>      -0.06540790      -0.34640292      -0.04821425 </v>
   <v>       0.23555003       0.19278036      -0.14338506 </v>
   <v>      -0.09615442       0.03254949       0.18473647 </v>
   <v>      -0.12999929      -0.34667801       0.40840151 </v>
   <v>       0.16600984       0.16403631       0.01131341 </v>
   <v>       0.30391751      -0.29742840      -0.11166696 </v>
   <v>       0.17233390       0.40691194       0.40749575 </v>
   <v>      -0.44519149      -0.34788638      -0.28805490 </v>
   <v>       0.04599456       0.25845195       0.27862739 </v>
   <v>      -0.15600770      -0.05103465       0.23728107 </v>
   <v>      -0.13814914       0.31013969      -0.31162722 </v>
   <v>      -0.00954885      -0.29179513       0.02754435 </v>
   <v>       0.00517479      -0.42818470       0.40702198 </v>
   <v>      -0.02815617      -0.33524234       0.39946102 </v>
   <v>       0.27231454       0.21278362      -0.29425262 </v>
   <v>       0.24892154      -0.03340421      -0.03114683 </v>
   <v>       0.00709829      -0.38115416      -0.14112217 </v>
   <v>       0.23119848      -0.18640129       0.05802484 </v>
   <v>       0.16984585      -0.42615717      -0.19887416 </v>
   <v>       0.06976648       0.38309815       0.40746314 </v>
   <v>       0.27985817      -0.14225107      -0.02198759 </v>
   <v>       0.02922760       0.35278709      -0.49872133 </v>
   <v>       0.29520932       0.27447045      -0.36762371 </v>
   <v>       0.04867946      -0.27889739       0.24917014 </v>
   <v>      -0.25131993       0.01863340      -0.30063577 </v>
   <v>      -0.03704806       0.33092747      -0.32885409 </v>
   <v>      -0.28017606      -0.06139767      -0.25151963 </v>
   <v>       0.14530764       0.03631010       0.37328450 </v>
   <v>       0.04911532       0.46629105      -0.25100714 </v>
   <v>       0.37380921      -0.16648769       0.49986245 </v>
   <v>       0.06954151      -0.23595248       0.16706029 </v>
   <v>       0.06778592       0.03557499       0.29138860 </v>
   <v>      -0.31640771       0.01474585      -0.38095447 </v>
   <v>       0.18111137       0.19562808      -0.30861547 </v>
   <v>       0.44472791      -0.18476092      -0.42661056 </v>
   <v>      -0.01379596       0.23785877      -0.34371415 </v>
   <v>       0.08636349      -0.43695300      -0.24774374 </v>
   <v>       0.03964870      -0.15035711       0.18904930 </v>
   <v>       0.29247878      -0.20171882      -0.44264435 </v>
   <v>       0.07479383       0.04896025       0.46723044 </v>
   <v>      -0.09651917       0.02188733      -0.35714475 </v>
   <v>       0.00387014       0.04610266      -0.36924981 </v>
   <v>       0.11333585      -0.27499414      -0.33136252 </v>
   <v>       0.06793650      -0.20282428      -0.47142610 </v>
   <v>       0.12678682      -0.18934783      -0.39191535 </v>
   <v>       0.06159788      -0.03455430      -0.36979694 </v>
  </varray>
 </structure>
 <varray name="primitive_index" >
  <v type="int" >        1 </v>
  <v type="int" >       32 </v>
  <v type="int" >       33 </v>
  <v type="int" >       86 </v>
  <v type="int" >       65 </v>
  <v type="int" >       17 </v>
  <v type="int" >       28 </v>
  <v type="int" >       25 </v>
  <v type="int" >       11 </v>
  <v type="int" >       87 </v>
  <v type="int" >       80 </v>
  <v type="int" >       52 </v>
  <v type="int" >       81 </v>
  <v type="int" >       53 </v>
  <v type="int" >       64 </v>
  <v type="int" >       45 </v>
  <v type="int" >       60 </v>
  <v type="int" >       46 </v>
  <v type="int" >       73 </v>
  <v type="int" >       71 </v>
  <v type="int" >       67 </v>
  <v type="int" >       90 </v>
  <v type="int" >       70 </v>
  <v type="int" >       48 </v>
  <v type="int" >       58 </v>
  <v type="int" >        8 </v>
  <v type="int" >       20 </v>
  <v type="int" >       26 </v>
  <v type="int" >        7 </v>
  <v type="int" >       21 </v>
  <v type="int" >       18 </v>
  <v type="int" >       15 </v>
  <v type="int" >       83 </v>
  <v type="int" >       59 </v>
  <v type="int" >       47 </v>
  <v type="int" >       44 </v>
  <v type="int" >       84 </v>
  <v type="int" >       82 </v>
  <v type="int" >       72 </v>
  <v type="int" >       16 </v>
  <v type="int" >       14 </v>
  <v type="int" >       66 </v>
  <v type="int" >       85 </v>
  <v type="int" >        9 </v>
  <v type="int" >       69 </v>
  <v type="int" >       30 </v>
  <v type="int" >       91 </v>
  <v type="int" >       29 </v>
  <v type="int" >       62 </v>
  <v type="int" >       68 </v>
  <v type="int" >       92 </v>
  <v type="int" >       63 </v>
  <v type="int" >       61 </v>
  <v type="int" >       38 </v>
  <v type="int" >       27 </v>
  <v type="int" >       49 </v>
  <v type="int" >       19 </v>
  <v type="int" >       57 </v>
  <v type="int" >       89 </v>
  <v type="int" >       93 </v>
  <v type="int" >       31 </v>
  <v type="int" >       12 </v>
  <v type="int" >       50 </v>
  <v type="int" >       88 </v>
  <v type="int" >       51 </v>
  <v type="int" >       37 </v>
  <v type="int" >        4 </v>
  <v type="int" >       10 </v>
  <v type="int" >       39 </v>
  <v type="int" >       55 </v>
  <v type="int" >       41 </v>
  <v type="int" >        6 </v>
  <v type="int" >       13 </v>
  <v type="int" >       43 </v>
  <v type="int" >       23 </v>
  <v type="int" >       36 </v>
  <v type="int" >       24 </v>
  <v type="int" >        5 </v>
  <v type="int" >       76 </v>
  <v type="int" >       42 </v>
  <v type="int" >       54 </v>
  <v type="int" >       79 </v>
  <v type="int" >       56 </v>
  <v type="int" >        3 </v>
  <v type="int" >       40 </v>
  <v type="int" >       78 </v>
  <v type="int" >       77 </v>
  <v type="int" >       74 </v>
  <v type="int" >       22 </v>
  <v type="int" >       35 </v>
  <v type="int" >       34 </v>
  <v type="int" >        2 </v>
  <v type="int" >       75 </v>
 </varray>
 <kpoints>
  <generation param="Gamma">
   <v type="int" name="divisions">      10       10       10 </v>
   <v name="usershift">      0.00000000       0.00000000       0.00000000 </v>
   <v name="genvec1">      0.10000000       0.00000000       0.00000000 </v>
   <v name="genvec2">      0.00000000       0.10000000       0.00000000 </v>
   <v name="genvec3">      0.00000000       0.00000000       0.10000000 </v>
   <v name="shift">      0.00000000       0.00000000       0.00000000 </v>
  </generation>
  <varray name="kpointlist" >
   <v>       0.00000000       0.00000000       0.00000000 </v>
   <v>       0.10000000       0.00000000       0.00000000 </v>
   <v>       0.20000000       0.00000000       0.00000000 </v>
   <v>       0.30000000       0.00000000       0.00000000 </v>
   <v>       0.40000000       0.00000000       0.00000000 </v>
   <v>       0.50000000       0.00000000       0.00000000 </v>
   <v>       0.00000000       0.10000000       0.00000000 </v>
   <v>       0.10000000       0.10000000       0.00000000 </v>
   <v>       0.20000000       0.10000000       0.00000000 </v>
   <v>       0.30000000       0.10000000       0.00000000 </v>
   <v>       0.40000000       0.10000000       0.00000000 </v>
   <v>       0.50000000       0.10000000       0.00000000 </v>
   <v>      -0.40000000       0.10000000       0.00000000 </v>
   <v>      -0.30000000       0.10000000       0.00000000 </v>
   <v>      -0.20000000       0.10000000       0.00000000 </v>
   <v>      -0.10000000       0.10000000       0.00000000 </v>
   <v>       0.00000000       0.20000000       0.00000000 </v>
   <v>       0.10000000       0.20000000       0.00000000 </v>
   <v>       0.20000000       0.20000000       0.00000000 </v>
   <v>       0.30000000       0.20000000       0.00000000 </v>
   <v>       0.40000000       0.20000000       0.00000000 </v>
   <v>       0.50000000       0.20000000       0.00000000 </v>
   <v>      -0.40000000       0.20000000       0.00000000 </v>
   <v>      -0.30000000       0.20000000       0.00000000 </v>
   <v>      -0.20000000       0.20000000       0.00000000 </v>
   <v>      -0.10000000       0.20000000       0.00000000 </v>
   <v>       0.00000000       0.30000000       0.00000000 </v>
   <v>       0.10000000       0.30000000       0.00000000 </v>
   <v>       0.20000000       0.30000000       0.00000000 </v>
   <v>       0.30000000       0.30000000       0.00000000 </v>
   <v>       0.40000000       0.30000000       0.00000000 </v>
   <v>       0.50000000       0.30000000       0.00000000 </v>
   <v>      -0.40000000       0.30000000       0.00000000 </v>
   <v>      -0.30000000       0.30000000       0.00000000 </v>
   <v>      -0.20000000       0.30000000       0.00000000 </v>
   <v>      -0.10000000       0.30000000       0.00000000 </v>
   <v>       0.00000000       0.40000000       0.00000000 </v>
   <v>       0.10000000       0.40000000       0.00000000 </v>
   <v>       0.20000000       0.40000000       0.00000000 </v>
   <v>       0.30000000       0.40000000       0.00000000 </v>
   <v>       0.40000000       0.40000000       0.00000000 </v>
   <v>       0.50000000       0.40000000       0.00000000 </v>
   <v>      -0.40000000       0.40000000       0.00000000 </v>
   <v>      -0.30000000       0.40000000       0.00000000 </v>
   <v>      -0.20000000       0.40000000       0.00000000 </v>
   <v>      -0.10000000       0.40000000       0.00000000 </v>
   <v>       0.00000000       0.50000000       0.00000000 </v>
   <v>       0.10000000       0.50000000       0.00000000 </v>
   <v>       0.20000000       0.50000000       0.00000000 </v>
   <v>       0.30000000       0.50000000       0.00000000 </v>
   <v>       0.40000000       0.50000000       0.00000000 </v>
   <v>       0.50000000       0.50000000       0.00000000 </v>
   <v>       0.00000000       0.00000000       0.10000000 </v>
   <v>       0.10000000       0.00000000       0.10000000 </v>
   <v>       0.20000000       0.00000000       0.10000000 </v>
   <v>       0.30000000       0.00000000       0.10000000 </v>
   <v>       0.40000000       0.00000000       0.10000000 </v>
   <v>       0.50000000       0.00000000       0.10000000 </v>
   <v>      -0.40000000       0.00000000       0.10000000 </v>
   <v>      -0.30000000       0.00000000       0.10000000 </v>
   <v>      -0.20000000       0.00000000       0.10000000 </v>
   <v>      -0.10000000       0.00000000       0.10000000 </v>
   <v>       0.00000000       0.10000000       0.10000000 </v>
   <v>       0.10000000       0.10000000       0.10000000 </v>
   <v>       0.20000000       0.10000000       0.10000000 </v>
   <v>       0.30000000       0.10000000       0.10000000 </v>
   <v>       0.40000000       0.10000000       0.10000000 </v>
   <v>       0.50000000       0.10000000       0.10000000 </v>
   <v>      -0.40000000       0.10000000       0.10000000 </v>
   <v>      -0.30000000       0.10000000       0.10000000 </v>
   <v>      -0.20000000       0.10000000       0.10000000 </v>
   <v>      -0.10000000       0.10000000       0.10000000 </v>
   <v>       0.00000000       0.20000000       0.10000000 </v>
   <v>       0.10000000       0.20000000       0.10000000 </v>
   <v>       0.20000000       0.20000000       0.10000000 </v>
   <v>       0.30000000       0.20000000       0.10000000 </v>
   <v>       0.40000000       0.20000000       0.10000000 </v>
   <v>       0.50000000       0.20000000       0.10000000 </v>
   <v>      -0.40000000       0.20000000       0.10000000 </v>
   <v>      -0.30000000       0.20000000       0.10000000 </v>
   <v>      -0.20000000       0.20000000       0.10000000 </v>
   <v>      -0.10000000       0.20000000       0.10000000 </v>
   <v>       0.00000000       0.30000000       0.10000000 </v>
   <v>       0.10000000       0.30000000       0.10000000 </v>
   <v>       0.20000000       0.30000000       0.10000000 </v>
   <v>       0.30000000       0.30000000       0.10000000 </v>
   <v>       0.40000000       0.30000000       0.10000000 </v>
   <v>       0.50000000       0.30000000       0.10000000 </v>
   <v>      -0.40000000       0.30000000       0.10000000 </v>
   <v>      -0.30000000       0.30000000       0.10000000 </v>
   <v>      -0.20000000       0.30000000       0.10000000 </v>
   <v>      -0.10000000       0.30000000       0.10000000 </v>
   <v>       0.00000000       0.40000000       0.10000000 </v>
   <v>       0.10000000       0.40000000       0.10000000 </v>
   <v>       0.20000000       0.40000000       0.10000000 </v>
   <v>       0.30000000       0.40000000       0.10000000 </v>
   <v>       0.40000000       0.40000000       0.10000000 </v>
   <v>       0.50000000       0.40000000       0.10000000 </v>
   <v>      -0.40000000       0.40000000       0.10000000 </v>
   <v>      -0.30000000       0.40000000       0.10000000 </v>
   <v>      -0.20000000       0.40000000       0.10000000 </v>
   <v>      -0.10000000       0.40000000       0.10000000 </v>
   <v>       0.00000000       0.50000000       0.10000000 </v>
   <v>       0.10000000       0.50000000       0.10000000 </v>
   <v>       0.20000000       0.50000000       0.10000000 </v>
   <v>       0.30000000       0.50000000       0.10000000 </v>
   <v>       0.40000000       0.50000000       0.10000000 </v>
   <v>       0.50000000       0.50000000       0.10000000 </v>
   <v>      -0.40000000       0.50000000       0.10000000 </v>
   <v>      -0.30000000       0.50000000       0.10000000 </v>
   <v>      -0.20000000       0.50000000       0.10000000 </v>
   <v>      -0.10000000       0.50000000       0.10000000 </v>
   <v>       0.00000000      -0.40000000       0.10000000 </v>
   <v>       0.10000000      -0.40000000       0.10000000 </v>
   <v>       0.20000000      -0.40000000       0.10000000 </v>
   <v>       0.30000000      -0.40000000       0.10000000 </v>
   <v>       0.40000000      -0.40000000       0.10000000 </v>
   <v>       0.50000000      -0.40000000       0.10000000 </v>
   <v>      -0.40000000      -0.40000000       0.10000000 </v>
   <v>      -0.30000000      -0.40000000       0.10000000 </v>
   <v>      -0.20000000      -0.40000000       0.10000000 </v>
   <v>      -0.10000000      -0.40000000       0.10000000 </v>
   <v>       0.00000000      -0.30000000       0.10000000 </v>
   <v>       0.10000000      -0.30000000       0.10000000 </v>
   <v>       0.20000000      -0.30000000       0.10000000 </v>
   <v>       0.30000000      -0.30000000       0.10000000 </v>
   <v>       0.40000000      -0.30000000       0.10000000 </v>
   <v>       0.50000000      -0.30000000       0.10000000 </v>
   <v>      -0.40000000      -0.30000000       0.10000000 </v>
   <v>      -0.30000000      -0.30000000       0.10000000 </v>
   <v>      -0.20000000      -0.30000000       0.10000000 </v>
   <v>      -0.10000000      -0.30000000       0.10000000 </v>
   <v>       0.00000000      -0.20000000       0.10000000 </v>
   <v>       0.10000000      -0.20000000       0.10000000 </v>
   <v>       0.20000000      -0.20000000       0.10000000 </v>
   <v>       0.30000000      -0.20000000       0.10000000 </v>
   <v>       0.40000000      -0.20000000       0.10000000 </v>
   <v>       0.50000000      -0.20000000       0.10000000 </v>
   <v>      -0.40000000      -0.20000000       0.10000000 </v>
   <v>      -0.30000000      -0.20000000       0.10000000 </v>
   <v>      -0.20000000      -0.20000000       0.10000000 </v>
   <v>      -0.10000000      -0.20000000       0.10000000 </v>
   <v>       0.00000000      -0.10000000       0.10000000 </v>
   <v>       0.10000000      -0.10000000       0.10000000 </v>
   <v>       0.20000000      -0.10000000       0.10000000 </v>
   <v>       0.30000000      -0.10000000       0.10000000 </v>
   <v>       0.40000000      -0.10000000       0.10000000 </v>
   <v>       0.50000000      -0.10000000       0.10000000 </v>
   <v>      -0.40000000      -0.10000000       0.10000000 </v>
   <v>      -0.30000000      -0.10000000       0.10000000 </v>
   <v>      -0.20000000      -0.10000000       0.10000000 </v>
   <v>      -0.10000000      -0.10000000       0.10000000 </v>
   <v>       0.00000000       0.00000000       0.20000000 </v>
   <v>       0.10000000       0.00000000       0.20000000 </v>
   <v>       0.20000000       0.00000000       0.20000000 </v>
   <v>       0.30000000       0.00000000       0.20000000 </v>
   <v>       0.40000000       0.00000000       0.20000000 </v>
   <v>       0.50000000       0.00000000       0.20000000 </v>
   <v>      -0.40000000       0.00000000       0.20000000 </v>
   <v>      -0.30000000       0.00000000       0.20000000 </v>
   <v>      -0.20000000       0.00000000       0.20000000 </v>
   <v>      -0.10000000       0.00000000       0.20000000 </v>
   <v>       0.00000000       0.10000000       0.20000000 </v>
   <v>       0.10000000       0.10000000       0.20000000 </v>
   <v>       0.20000000       0.10000000       0.20000000 </v>
   <v>       0.30000000       0.10000000       0.20000000 </v>
   <v>       0.40000000       0.10000000       0.20000000 </v>
   <v>       0.50000000       0.10000000       0.20000000 </v>
   <v>      -0.40000000       0.10000000       0.20000000 </v>
   <v>      -0.30000000       0.10000000       0.20000000 </v>
   <v>      -0.20000000       0.10000000       0.20000000 </v>
   <v>      -0.10000000       0.10000000       0.20000000 </v>
   <v>       0.00000000       0.20000000       0.20000000 </v>
   <v>       0.10000000       0.20000000       0.20000000 </v>
   <v>       0.20000000       0.20000000       0.20000000 </v>
   <v>       0.30000000       0.20000000       0.20000000 </v>
   <v>       0.40000000       0.20000000       0.20000000 </v>
   <v>       0.50000000       0.20000000       0.20000000 </v>
   <v>      -0.40000000       0.20000000       0.20000000 </v>
   <v>      -0.30000000       0.20000000       0.20000000 </v>
   <v>      -0.20000000       0.20000000       0.20000000 </v>
   <v>      -0.10000000       0.20000000       0.20000000 </v>
   <v>       0.00000000       0.30000000       0.20000000 </v>
   <v>       0.10000000       0.30000000       0.20000000 </v>
   <v>       0.20000000       0.30000000       0.20000000 </v>
   <v>       0.30000000       0.30000000       0.20000000 </v>
   <v>       0.40000000       0.30000000       0.20000000 </v>
   <v>       0.50000000       0.30000000       0.20000000 </v>
   <v>      -0.40000000       0.30000000       0.20000000 </v>
   <v>      -0.30000000       0.30000000       0.20000000 </v>
   <v>      -0.20000000       0.30000000       0.20000000 </v>
   <v>      -0.10000000       0.30000000       0.20000000 </v>
   <v>       0.00000000       0.40000000       0.20000000 </v>
   <v>       0.10000000       0.40000000       0.20000000 </v>
   <v>       0.20000000       0.40000000       0.20000000 </v>
   <v>       0.30000000       0.40000000       0.20000000 </v>
   <v>       0.40000000       0.40000000       0.20000000 </v>
   <v>       0.50000000       0.40000000       0.20000000 </v>
   <v>      -0.40000000       0.40000000       0.20000000 </v>
   <v>      -0.30000000       0.40000000       0.20000000 </v>
   <v>      -0.20000000       0.40000000       0.20000000 </v>
   <v>      -0.10000000       0.40000000       0.20000000 </v>
   <v>       0.00000000       0.50000000       0.20000000 </v>
   <v>       0.10000000       0.50000000       0.20000000 </v>
   <v>       0.20000000       0.50000000       0.20000000 </v>
   <v>       0.30000000       0.50000000       0.20000000 </v>
   <v>       0.40000000       0.50000000       0.20000000 </v>
   <v>       0.50000000       0.50000000       0.20000000 </v>
   <v>      -0.40000000       0.50000000       0.20000000 </v>
   <v>      -0.30000000       0.50000000       0.20000000 </v>
   <v>      -0.20000000       0.50000000       0.20000000 </v>
   <v>      -0.10000000       0.50000000       0.20000000 </v>
   <v>       0.00000000      -0.40000000       0.20000000 </v>
   <v>       0.10000000      -0.40000000       0.20000000 </v>
   <v>       0.20000000      -0.40000000       0.20000000 </v>
   <v>       0.30000000      -0.40000000       0.20000000 </v>
   <v>       0.40000000      -0.40000000       0.20000000 </v>
   <v>       0.50000000      -0.40000000       0.20000000 </v>
   <v>      -0.40000000      -0.40000000       0.20000000 </v>
   <v>      -0.30000000      -0.40000000       0.20000000 </v>
   <v>      -0.20000000      -0.40000000       0.20000000 </v>
   <v>      -0.10000000      -0.40000000       0.20000000 </v>
   <v>       0.00000000      -0.30000000       0.20000000 </v>
   <v>       0.10000000      -0.30000000       0.20000000 </v>
   <v>       0.20000000      -0.30000000       0.20000000 </v>
   <v>       0.30000000      -0.30000000       0.20000000 </v>
   <v>       0.40000000      -0.30000000       0.20000000 </v>
   <v>       0.50000000      -0.30000000       0.20000000 </v>
   <v>      -0.40000000      -0.30000000       0.20000000 </v>
   <v>      -0.30000000      -0.30000000       0.20000000 </v>
   <v>      -0.20000000      -0.30000000       0.20000000 </v>
   <v>      -0.10000000      -0.30000000       0.20000000 </v>
   <v>       0.00000000      -0.20000000       0.20000000 </v>
   <v>       0.10000000      -0.20000000       0.20000000 </v>
   <v>       0.20000000      -0.20000000       0.20000000 </v>
   <v>       0.30000000      -0.20000000       0.20000000 </v>
   <v>       0.40000000      -0.20000000       0.20000000 </v>
   <v>       0.50000000      -0.20000000       0.20000000 </v>
   <v>      -0.40000000      -0.20000000       0.20000000 </v>
   <v>      -0.30000000      -0.20000000       0.20000000 </v>
   <v>      -0.20000000      -0.20000000       0.20000000 </v>
   <v>      -0.10000000      -0.20000000       0.20000000 </v>
   <v>       0.00000000      -0.10000000       0.20000000 </v>
   <v>       0.10000000      -0.10000000       0.20000000 </v>
   <v>       0.20000000      -0.10000000       0.20000000 </v>
   <v>       0.30000000      -0.10000000       0.20000000 </v>
   <v>       0.40000000      -0.10000000       0.20000000 </v>
   <v>       0.50000000      -0.10000000       0.20000000 </v>
   <v>      -0.40000000      -0.10000000       0.20000000 </v>
   <v>      -0.30000000      -0.10000000       0.20000000 </v>
   <v>      -0.20000000      -0.10000000       0.20000000 </v>
   <v>      -0.10000000      -0.10000000       0.20000000 </v>
   <v>       0.00000000       0.00000000       0.30000000 </v>
   <v>       0.10000000       0.00000000       0.30000000 </v>
   <v>       0.20000000       0.00000000       0.30000000 </v>
   <v>       0.30000000       0.00000000       0.30000000 </v>
   <v>       0.40000000       0.00000000       0.30000000 </v>
   <v>       0.50000000       0.00000000       0.30000000 </v>
   <v>      -0.40000000       0.00000000       0.30000000 </v>
   <v>      -0.30000000       0.00000000       0.30000000 </v>
   <v>      -0.20000000       0.00000000       0.30000000 </v>
   <v>      -0.10000000       0.00000000       0.30000000 </v>
   <v>       0.00000000       0.10000000       0.30000000 </v>
   <v>       0.10000000       0.10000000       0.30000000 </v>
   <v>       0.20000000       0.10000000       0.30000000 </v>
   <v>       0.30000000       0.10000000       0.30000000 </v>
   <v>       0.40000000       0.10000000       0.30000000 </v>
   <v>       0.50000000       0.10000000       0.30000000 </v>
   <v>      -0.40000000       0.10000000       0.30000000 </v>
   <v>      -0.30000000       0.10000000       0.30000000 </v>
   <v>      -0.20000000       0.10000000       0.30000000 </v>
   <v>      -0.10000000       0.10000000       0.30000000 </v>
   <v>       0.00000000       0.20000000       0.30000000 </v>
   <v>       0.10000000       0.20000000       0.30000000 </v>
   <v>       0.20000000       0.20000000       0.30000000 </v>
   <v>       0.30000000       0.20000000       0.30000000 </v>
   <v>       0.40000000       0.20000000       0.30000000 </v>
   <v>       0.50000000       0.20000000       0.30000000 </v>
   <v>      -0.40000000       0.20000000       0.30000000 </v>
   <v>      -0.30000000       0.20000000       0.30000000 </v>
   <v>      -0.20000000       0.20000000       0.30000000 </v>
   <v>      -0.10000000       0.20000000       0.30000000 </v>
   <v>       0.00000000       0.30000000       0.30000000 </v>
   <v>       0.10000000       0.30000000       0.30000000 </v>
   <v>       0.20000000       0.30000000       0.30000000 </v>
   <v>       0.30000000       0.30000000       0.30000000 </v>
   <v>       0.40000000       0.30000000       0.30000000 </v>
   <v>       0.50000000       0.30000000       0.30000000 </v>
   <v>      -0.40000000       0.30000000       0.30000000 </v>
   <v>      -0.30000000       0.30000000       0.30000000 </v>
   <v>      -0.20000000       0.30000000       0.30000000 </v>
   <v>      -0.10000000       0.30000000       0.30000000 </v>
   <v>       0.00000000       0.40000000       0.30000000 </v>
   <v>       0.10000000       0.40000000       0.30000000 </v>
   <v>       0.20000000       0.40000000       0.30000000 </v>
   <v>       0.30000000       0.40000000       0.30000000 </v>
   <v>       0.40000000       0.40000000       0.30000000 </v>
   <v>       0.50000000       0.40000000       0.30000000 </v>
   <v>      -0.40000000       0.40000000       0.30000000 </v>
   <v>      -0.30000000       0.40000000       0.30000000 </v>
   <v>      -0.20000000       0.40000000       0.30000000 </v>
   <v>      -0.10000000       0.40000000       0.30000000 </v>
   <v>       0.00000000       0.50000000       0.30000000 </v>
   <v>       0.10000000       0.50000000       0.30000000 </v>
   <v>       0.20000000       0.50000000       0.30000000 </v>
   <v>       0.30000000       0.50000000       0.30000000 </v>
   <v>       0.40000000       0.50000000       0.30000000 </v>
   <v>       0.50000000       0.50000000       0.30000000 </v>
   <v>      -0.40000000       0.50000000       0.30000000 </v>
   <v>      -0.30000000       0.50000000       0.30000000 </v>
   <v>      -0.20000000       0.50000000       0.30000000 </v>
   <v>      -0.10000000       0.50000000       0.30000000 </v>
   <v>       0.00000000      -0.40000000       0.30000000 </v>
   <v>       0.10000000      -0.40000000       0.30000000 </v>
   <v>       0.20000000      -0.40000000       0.30000000 </v>
   <v>       0.30000000      -0.40000000       0.30000000 </v>
   <v>       0.40000000      -0.40000000       0.30000000 </v>
   <v>       0.50000000      -0.40000000       0.30000000 </v>
   <v>      -0.40000000      -0.40000000       0.30000000 </v>
   <v>      -0.30000000      -0.40000000       0.30000000 </v>
   <v>      -0.20000000      -0.40000000       0.30000000 </v>
   <v>      -0.10000000      -0.40000000       0.30000000 </v>
   <v>       0.00000000      -0.30000000       0.30000000 </v>
   <v>       0.10000000      -0.30000000       0.30000000 </v>
   <v>       0.20000000      -0.30000000       0.30000000 </v>
   <v>       0.30000000      -0.30000000       0.30000000 </v>
   <v>       0.40000000      -0.30000000       0.30000000 </v>
   <v>       0.50000000      -0.30000000       0.30000000 </v>
   <v>      -0.40000000      -0.30000000       0.30000000 </v>
   <v>      -0.30000000      -0.30000000       0.30000000 </v>
   <v>      -0.20000000      -0.30000000       0.30000000 </v>
   <v>      -0.10000000      -0.30000000       0.30000000 </v>
   <v>       0.00000000      -0.20000000       0.30000000 </v>
   <v>       0.10000000      -0.20000000       0.30000000 </v>
   <v>       0.20000000      -0.20000000       0.30000000 </v>
   <v>       0.30000000      -0.20000000       0.30000000 </v>
   <v>       0.40000000      -0.20000000       0.30000000 </v>
   <v>       0.50000000      -0.20000000       0.30000000 </v>
   <v>      -0.40000000      -0.20000000       0.30000000 </v>
   <v>      -0.30000000      -0.20000000       0.30000000 </v>
   <v>      -0.20000000      -0.20000000       0.30000000 </v>
   <v>      -0.10000000      -0.20000000       0.30000000 </v>
   <v>       0.00000000      -0.10000000       0.30000000 </v>
   <v>       0.10000000      -0.10000000       0.30000000 </v>
   <v>       0.20000000      -0.10000000       0.30000000 </v>
   <v>       0.30000000      -0.10000000       0.30000000 </v>
   <v>       0.40000000      -0.10000000       0.30000000 </v>
   <v>       0.50000000      -0.10000000       0.30000000 </v>
   <v>      -0.40000000      -0.10000000       0.30000000 </v>
   <v>      -0.30000000      -0.10000000       0.30000000 </v>
   <v>      -0.20000000      -0.10000000       0.30000000 </v>
   <v>      -0.10000000      -0.10000000       0.30000000 </v>
   <v>       0.00000000       0.00000000       0.40000000 </v>
   <v>       0.10000000       0.00000000       0.40000000 </v>
   <v>       0.20000000       0.00000000       0.40000000 </v>
   <v>       0.30000000       0.00000000       0.40000000 </v>
   <v>       0.40000000       0.00000000       0.40000000 </v>
   <v>       0.50000000       0.00000000       0.40000000 </v>
   <v>      -0.40000000       0.00000000       0.40000000 </v>
   <v>      -0.30000000       0.00000000       0.40000000 </v>
   <v>      -0.20000000       0.00000000       0.40000000 </v>
   <v>      -0.10000000       0.00000000       0.40000000 </v>
   <v>       0.00000000       0.10000000       0.40000000 </v>
   <v>       0.10000000       0.10000000       0.40000000 </v>
   <v>       0.20000000       0.10000000       0.40000000 </v>
   <v>       0.30000000       0.10000000       0.40000000 </v>
   <v>       0.40000000       0.10000000       0.40000000 </v>
   <v>       0.50000000       0.10000000       0.40000000 </v>
   <v>      -0.40000000       0.10000000       0.40000000 </v>
   <v>      -0.30000000       0.10000000       0.40000000 </v>
   <v>      -0.20000000       0.10000000       0.40000000 </v>
   <v>      -0.10000000       0.10000000       0.40000000 </v>
   <v>       0.00000000       0.20000000       0.40000000 </v>
   <v>       0.10000000       0.20000000       0.40000000 </v>
   <v>       0.20000000       0.20000000       0.40000000 </v>
   <v>       0.30000000       0.20000000       0.40000000 </v>
   <v>       0.40000000       0.20000000       0.40000000 </v>
   <v>       0.50000000       0.20000000       0.40000000 </v>
   <v>      -0.40000000       0.20000000       0.40000000 </v>
   <v>      -0.30000000       0.20000000       0.40000000 </v>
   <v>      -0.20000000       0.20000000       0.40000000 </v>
   <v>      -0.10000000       0.20000000       0.40000000 </v>
   <v>       0.00000000       0.30000000       0.40000000 </v>
   <v>       0.10000000       0.30000000       0.40000000 </v>
   <v>       0.20000000       0.30000000       0.40000000 </v>
   <v>       0.30000000       0.30000000       0.40000000 </v>
   <v>       0.40000000       0.30000000       0.40000000 </v>
   <v>       0.50000000       0.30000000       0.40000000 </v>
   <v>      -0.40000000       0.30000000       0.40000000 </v>
   <v>      -0.30000000       0.30000000       0.40000000 </v>
   <v>      -0.20000000       0.30000000       0.40000000 </v>
   <v>      -0.10000000       0.30000000       0.40000000 </v>
   <v>       0.00000000       0.40000000       0.40000000 </v>
   <v>       0.10000000       0.40000000       0.40000000 </v>
   <v>       0.20000000       0.40000000       0.40000000 </v>
   <v>       0.30000000       0.40000000       0.40000000 </v>
   <v>       0.40000000       0.40000000       0.40000000 </v>
   <v>       0.50000000       0.40000000       0.40000000 </v>
   <v>      -0.40000000       0.40000000       0.40000000 </v>
   <v>      -0.30000000       0.40000000       0.40000000 </v>
   <v>      -0.20000000       0.40000000       0.40000000 </v>
   <v>      -0.10000000       0.40000000       0.40000000 </v>
   <v>       0.00000000       0.50000000       0.40000000 </v>
   <v>       0.10000000       0.50000000       0.40000000 </v>
   <v>       0.20000000       0.50000000       0.40000000 </v>
   <v>       0.30000000       0.50000000       0.40000000 </v>
   <v>       0.40000000       0.50000000       0.40000000 </v>
   <v>       0.50000000       0.50000000       0.40000000 </v>
   <v>      -0.40000000       0.50000000       0.40000000 </v>
   <v>      -0.30000000       0.50000000       0.40000000 </v>
   <v>      -0.20000000       0.50000000       0.40000000 </v>
   <v>      -0.10000000       0.50000000       0.40000000 </v>
   <v>       0.00000000      -0.40000000       0.40000000 </v>
   <v>       0.10000000      -0.40000000       0.40000000 </v>
   <v>       0.20000000      -0.40000000       0.40000000 </v>
   <v>       0.30000000      -0.40000000       0.40000000 </v>
   <v>       0.40000000      -0.40000000       0.40000000 </v>
   <v>       0.50000000      -0.40000000       0.40000000 </v>
   <v>      -0.40000000      -0.40000000       0.40000000 </v>
   <v>      -0.30000000      -0.40000000       0.40000000 </v>
   <v>      -0.20000000      -0.40000000       0.40000000 </v>
   <v>      -0.10000000      -0.40000000       0.40000000 </v>
   <v>       0.00000000      -0.30000000       0.40000000 </v>
   <v>       0.10000000      -0.30000000       0.40000000 </v>
   <v>       0.20000000      -0.30000000       0.40000000 </v>
   <v>       0.30000000      -0.30000000       0.40000000 </v>
   <v>       0.40000000      -0.30000000       0.40000000 </v>
   <v>       0.50000000      -0.30000000       0.40000000 </v>
   <v>      -0.40000000      -0.30000000       0.40000000 </v>
   <v>      -0.30000000      -0.30000000       0.40000000 </v>
   <v>      -0.20000000      -0.30000000       0.40000000 </v>
   <v>      -0.10000000      -0.30000000       0.40000000 </v>
   <v>       0.00000000      -0.20000000       0.40000000 </v>
   <v>       0.10000000      -0.20000000       0.40000000 </v>
   <v>       0.20000000      -0.20000000       0.40000000 </v>
   <v>       0.30000000      -0.20000000       0.40000000 </v>
   <v>       0.40000000      -0.20000000       0.40000000 </v>
   <v>       0.50000000      -0.20000000       0.40000000 </v>
   <v>      -0.40000000      -0.20000000       0.40000000 </v>
   <v>      -0.30000000      -0.20000000       0.40000000 </v>
   <v>      -0.20000000      -0.20000000       0.40000000 </v>
   <v>      -0.10000000      -0.20000000       0.40000000 </v>
   <v>       0.00000000      -0.10000000       0.40000000 </v>
   <v>       0.10000000      -0.10000000       0.40000000 </v>
   <v>       0.20000000      -0.10000000       0.40000000 </v>
   <v>       0.30000000      -0.10000000       0.40000000 </v>
   <v>       0.40000000      -0.10000000       0.40000000 </v>
   <v>       0.50000000      -0.10000000       0.40000000 </v>
   <v>      -0.40000000      -0.10000000       0.40000000 </v>
   <v>      -0.30000000      -0.10000000       0.40000000 </v>
   <v>      -0.20000000      -0.10000000       0.40000000 </v>
   <v>      -0.10000000      -0.10000000       0.40000000 </v>
   <v>       0.00000000       0.00000000       0.50000000 </v>
   <v>       0.10000000       0.00000000       0.50000000 </v>
   <v>       0.20000000       0.00000000       0.50000000 </v>
   <v>       0.30000000       0.00000000       0.50000000 </v>
   <v>       0.40000000       0.00000000       0.50000000 </v>
   <v>       0.50000000       0.00000000       0.50000000 </v>
   <v>       0.00000000       0.10000000       0.50000000 </v>
   <v>       0.10000000       0.10000000       0.50000000 </v>
   <v>       0.20000000       0.10000000       0.50000000 </v>
   <v>       0.30000000       0.10000000       0.50000000 </v>
   <v>       0.40000000       0.10000000       0.50000000 </v>
   <v>       0.50000000       0.10000000       0.50000000 </v>
   <v>      -0.40000000       0.10000000       0.50000000 </v>
   <v>      -0.30000000       0.10000000       0.50000000 </v>
   <v>      -0.20000000       0.10000000       0.50000000 </v>
   <v>      -0.10000000       0.10000000       0.50000000 </v>
   <v>       0.00000000       0.20000000       0.50000000 </v>
   <v>       0.10000000       0.20000000       0.50000000 </v>
   <v>       0.20000000       0.20000000       0.50000000 </v>
   <v>       0.30000000       0.20000000       0.50000000 </v>
   <v>       0.40000000       0.20000000       0.50000000 </v>
   <v>       0.50000000       0.20000000       0.50000000 </v>
   <v>      -0.40000000       0.20000000       0.50000000 </v>
   <v>      -0.30000000       0.20000000       0.50000000 </v>
   <v>      -0.20000000       0.20000000       0.50000000 </v>
   <v>      -0.10000000       0.20000000       0.50000000 </v>
   <v>       0.00000000       0.30000000       0.50000000 </v>
   <v>       0.10000000       0.30000000       0.50000000 </v>
   <v>       0.20000000       0.30000000       0.50000000 </v>
   <v>       0.30000000       0.30000000       0.50000000 </v>
   <v>       0.40000000       0.30000000       0.50000000 </v>
   <v>       0.50000000       0.30000000       0.50000000 </v>
   <v>      -0.40000000       0.30000000       0.50000000 </v>
   <v>      -0.30000000       0.30000000       0.50000000 </v>
   <v>      -0.20000000       0.30000000       0.50000000 </v>
   <v>      -0.10000000       0.30000000       0.50000000 </v>
   <v>       0.00000000       0.40000000       0.50000000 </v>
   <v>       0.10000000       0.40000000       0.50000000 </v>
   <v>       0.20000000       0.40000000       0.50000000 </v>
   <v>       0.30000000       0.40000000       0.50000000 </v>
   <v>       0.40000000       0.40000000       0.50000000 </v>
   <v>       0.50000000       0.40000000       0.50000000 </v>
   <v>      -0.40000000       0.40000000       0.50000000 </v>
   <v>      -0.30000000       0.40000000       0.50000000 </v>
   <v>      -0.20000000       0.40000000       0.50000000 </v>
   <v>      -0.10000000       0.40000000       0.50000000 </v>
   <v>       0.00000000       0.50000000       0.50000000 </v>
   <v>       0.10000000       0.50000000       0.50000000 </v>
   <v>       0.20000000       0.50000000       0.50000000 </v>
   <v>       0.30000000       0.50000000       0.50000000 </v>
   <v>       0.40000000       0.50000000       0.50000000 </v>
   <v>       0.50000000       0.50000000       0.50000000 </v>
  </varray>
  <varray name="weights" >
   <v>       0.00100000 </v>
   <v>       0.00200000 </v>
   <v>       0.00200000 </v>
   <v>       0.00200000 </v>
   <v>       0.00200000 </v>
   <v>       0.00100000 </v>
   <v>       0.00200000 </v>
   <v>       0.00200000 </v>
   <v>       0.00200000 </v>
   <v>       0.00200000 </v>
   <v>       0.00200000 </v>
   <v>       0.00200000 </v>
   <v>       0.00200000 </v>
   <v>       0.00200000 </v>
   <v>       0.00200000 </v>
   <v>       0.00200000 </v>
   <v>       0.00200000 </v>
   <v>       0.00200000 </v>
   <v>       0.00200000 </v>
   <v>       0.00200000 </v>
   <v>       0.00200000 </v>
   <v>       0.00200000 </v>
   <v>       0.00200000 </v>
   <v>       0.00200000 </v>
   <v>       0.00200000 </v>
   <v>       0.00200000 </v>
   <v>       0.00200000 </v>
   <v>       0.00200000 </v>
   <v>       0.00200000 </v>
   <v>       0.00200000 </v>
   <v>       0.00200000 </v>
   <v>       0.00200000 </v>
   <v>       0.00200000 </v>
   <v>       0.00200000 </v>
   <v>       0.00200000 </v>
   <v>       0.00200000 </v>
   <v>       0.00200000 </v>
   <v>       0.00200000 </v>
   <v>       0.00200000 </v>
   <v>       0.00200000 </v>
   <v>       0.00200000 </v>
   <v>       0.00200000 </v>
   <v>       0.00200000 </v>
   <v>       0.00200000 </v>
   <v>       0.00200000 </v>
   <v>       0.00200000 </v>
   <v>       0.00100000 </v>
   <v>       0.00200000 </v>
   <v>       0.00200000 </v>
   <v>       0.00200000 </v>
   <v>       0.00200000 </v>
   <v>       0.00100000 </v>
   <v>       0.00200000 </v>
   <v>       0.00200000 </v>
   <v>       0.00200000 </v>
   <v>       0.00200000 </v>
   <v>       0.00200000 </v>
   <v>       0.00200000 </v>
   <v>       0.00200000 </v>
   <v>       0.00200000 </v>
   <v>       0.00200000 </v>
   <v>       0.00200000 </v>
   <v>       0.00200000 </v>
   <v>       0.00200000 </v>
   <v>       0.00200000 </v>
   <v>       0.00200000 </v>
   <v>       0.00200000 </v>
   <v>       0.00200000 </v>
   <v>       0.00200000 </v>
   <v>       0.00200000 </v>
   <v>       0.00200000 </v>
   <v>       0.00200000 </v>
   <v>       0.00200000 </v>
   <v>       0.00200000 </v>
   <v>       0.00200000 </v>
   <v>       0.00200000 </v>
   <v>       0.00200000 </v>
   <v>       0.00200000 </v>
   <v>       0.00200000 </v>
   <v>       0.00200000 </v>
   <v>       0.00200000 </v>
   <v>       0.00200000 </v>
   <v>       0.00200000 </v>
   <v>       0.00200000 </v>
   <v>       0.00200000 </v>
   <v>       0.00200000 </v>
   <v>       0.00200000 </v>
   <v>       0.00200000 </v>
   <v>       0.00200000 </v>
   <v>       0.00200000 </v>
   <v>       0.00200000 </v>
   <v>       0.00200000 </v>
   <v>       0.00200000 </v>
   <v>       0.00200000 </v>
   <v>       0.00200000 </v>
   <v>       0.00200000 </v>
   <v>       0.00200000 </v>
   <v>       0.00200000 </v>
   <v>       0.00200000 </v>
   <v>       0.00200000 </v>
   <v>       0.00200000 </v>
   <v>       0.00200000 </v>
   <v>       0.00200000 </v>
   <v>       0.00200000 </v>
   <v>       0.00200000 </v>
   <v>       0.00200000 </v>
   <v>       0.00200000 </v>
   <v>       0.00200000 </v>
   <v>       0.00200000 </v>
   <v>       0.00200000 </v>
   <v>       0.00200000 </v>
   <v>       0.00200000 </v>
   <v>       0.00200000 </v>
   <v>       0.00200000 </v>
   <v>       0.00200000 </v>
   <v>       0.00200000 </v>
   <v>       0.00200000 </v>
   <v>       0.00200000 </v>
   <v>       0.00200000 </v>
   <v>       0.00200000 </v>
   <v>       0.00200000 </v>
   <v>       0.00200000 </v>
   <v>       0.00200000 </v>
   <v>       0.00200000 </v>
   <v>       0.00200000 </v>
   <v>       0.00200000 </v>
   <v>       0.00200000 </v>
   <v>       0.00200000 </v>
   <v>       0.00200000 </v>
   <v>       0.00200000 </v>
   <v>       0.00200000 </v>
   <v>       0.00200000 </v>
   <v>       0.00200000 </v>
   <v>       0.00200000 </v>
   <v>       0.00200000 </v>
   <v>       0.00200000 </v>
   <v>       0.00200000 </v>
   <v>       0.00200000 </v>
   <v>       0.00200000 </v>
   <v>       0.00200000 </v>
   <v>       0.00200000 </v>
   <v>       0.00200000 </v>
   <v>       0.00200000 </v>
   <v>       0.00200000 </v>
   <v>       0.00200000 </v>
   <v>       0.00200000 </v>
   <v>       0.00200000 </v>
   <v>       0.00200000 </v>
   <v>       0.00200000 </v>
   <v>       0.00200000 </v>
   <v>       0.00200000 </v>
   <v>       0.00200000 </v>
   <v>       0.00200000 </v>
   <v>       0.00200000 </v>
   <v>       0.00200000 </v>
   <v>       0.00200000 </v>
   <v>       0.00200000 </v>
   <v>       0.00200000 </v>
   <v>       0.00200000 </v>
   <v>       0.00200000 </v>
   <v>       0.00200000 </v>
   <v>       0.00200000 </v>
   <v>       0.00200000 </v>
   <v>       0.00200000 </v>
   <v>       0.00200000 </v>
   <v>       0.00200000 </v>
   <v>       0.00200000 </v>
   <v>       0.00200000 </v>
   <v>       0.00200000 </v>
   <v>       0.00200000 </v>
   <v>       0.00200000 </v>
   <v>       0.00200000 </v>
   <v>       0.00200000 </v>
   <v>       0.00200000 </v>
   <v>       0.00200000 </v>
   <v>       0.00200000 </v>
   <v>       0.00200000 </v>
   <v>       0.00200000 </v>
   <v>       0.00200000 </v>
   <v>       0.00200000 </v>
   <v>       0.00200000 </v>
   <v>       0.00200000 </v>
   <v>       0.00200000 </v>
   <v>       0.00200000 </v>
   <v>       0.00200000 </v>
   <v>       0.00200000 </v>
   <v>       0.00200000 </v>
   <v>       0.00200000 </v>
   <v>       0.00200000 </v>
   <v>       0.00200000 </v>
   <v>       0.00200000 </v>
   <v>       0.00200000 </v>
   <v>       0.00200000 </v>
   <v>       0.00200000 </v>
   <v>       0.00200000 </v>
   <v>       0.00200000 </v>
   <v>       0.00200000 </v>
   <v>       0.00200000 </v>
   <v>       0.00200000 </v>
   <v>       0.00200000 </v>
   <v>       0.00200000 </v>
   <v>       0.00200000 </v>
   <v>       0.00200000 </v>
   <v>       0.00200000 </v>
   <v>       0.00200000 </v>
   <v>       0.00200000 </v>
   <v>       0.00200000 </v>
   <v>       0.00200000 </v>
   <v>       0.00200000 </v>
   <v>       0.00200000 </v>
   <v>       0.00200000 </v>
   <v>       0.00200000 </v>
   <v>       0.00200000 </v>
   <v>       0.00200000 </v>
   <v>       0.00200000 </v>
   <v>       0.00200000 </v>
   <v>       0.00200000 </v>
   <v>       0.00200000 </v>
   <v>       0.00200000 </v>
   <v>       0.00200000 </v>
   <v>       0.00200000 </v>
   <v>       0.00200000 </v>
   <v>       0.00200000 </v>
   <v>       0.00200000 </v>
   <v>       0.00200000 </v>
   <v>       0.00200000 </v>
   <v>       0.00200000 </v>
   <v>       0.00200000 </v>
   <v>       0.00200000 </v>
   <v>       0.00200000 </v>
   <v>       0.00200000 </v>
   <v>       0.00200000 </v>
   <v>       0.00200000 </v>
   <v>       0.00200000 </v>
   <v>       0.00200000 </v>
   <v>       0.00200000 </v>
   <v>       0.00200000 </v>
   <v>       0.00200000 </v>
   <v>       0.00200000 </v>
   <v>       0.00200000 </v>
   <v>       0.00200000 </v>
   <v>       0.00200000 </v>
   <v>       0.00200000 </v>
   <v>       0.00200000 </v>
   <v>       0.00200000 </v>
   <v>       0.00200000 </v>
   <v>       0.00200000 </v>
   <v>       0.00200000 </v>
   <v>       0.00200000 </v>
   <v>       0.00200000 </v>
   <v>       0.00200000 </v>
   <v>       0.00200000 </v>
   <v>       0.00200000 </v>
   <v>       0.00200000 </v>
   <v>       0.00200000 </v>
   <v>       0.00200000 </v>
   <v>       0.00200000 </v>
   <v>       0.00200000 </v>
   <v>       0.00200000 </v>
   <v>       0.00200000 </v>
   <v>       0.00200000 </v>
   <v>       0.00200000 </v>
   <v>       0.00200000 </v>
   <v>       0.00200000 </v>
   <v>       0.00200000 </v>
   <v>       0.00200000 </v>
   <v>       0.00200000 </v>
   <v>       0.00200000 </v>
   <v>       0.00200000 </v>
   <v>       0.00200000 </v>
   <v>       0.00200000 </v>
   <v>       0.00200000 </v>
   <v>       0.00200000 </v>
   <v>       0.00200000 </v>
   <v>       0.00200000 </v>
   <v>       0.00200000 </v>
   <v>       0.00200000 </v>
   <v>       0.00200000 </v>
   <v>       0.00200000 </v>
   <v>       0.00200000 </v>
   <v>       0.00200000 </v>
   <v>       0.00200000 </v>
   <v>       0.00200000 </v>
   <v>       0.00200000 </v>
   <v>       0.00200000 </v>
   <v>       0.00200000 </v>
   <v>       0.00200000 </v>
   <v>       0.00200000 </v>
   <v>       0.00200000 </v>
   <v>       0.00200000 </v>
   <v>       0.00200000 </v>
   <v>       0.00200000 </v>
   <v>       0.00200000 </v>
   <v>       0.00200000 </v>
   <v>       0.00200000 </v>
   <v>       0.00200000 </v>
   <v>       0.00200000 </v>
   <v>       0.00200000 </v>
   <v>       0.00200000 </v>
   <v>       0.00200000 </v>
   <v>       0.00200000 </v>
   <v>       0.00200000 </v>
   <v>       0.00200000 </v>
   <v>       0.00200000 </v>
   <v>       0.00200000 </v>
   <v>       0.00200000 </v>
   <v>       0.00200000 </v>
   <v>       0.00200000 </v>
   <v>       0.00200000 </v>
   <v>       0.00200000 </v>
   <v>       0.00200000 </v>
   <v>       0.00200000 </v>
   <v>       0.00200000 </v>
   <v>       0.00200000 </v>
   <v>       0.00200000 </v>
   <v>       0.00200000 </v>
   <v>       0.00200000 </v>
   <v>       0.00200000 </v>
   <v>       0.00200000 </v>
   <v>       0.00200000 </v>
   <v>       0.00200000 </v>
   <v>       0.00200000 </v>
   <v>       0.00200000 </v>
   <v>       0.00200000 </v>
   <v>       0.00200000 </v>
   <v>       0.00200000 </v>
   <v>       0.00200000 </v>
   <v>       0.00200000 </v>
   <v>       0.00200000 </v>
   <v>       0.00200000 </v>
   <v>       0.00200000 </v>
   <v>       0.00200000 </v>
   <v>       0.00200000 </v>
   <v>       0.00200000 </v>
   <v>       0.00200000 </v>
   <v>       0.00200000 </v>
   <v>       0.00200000 </v>
   <v>       0.00200000 </v>
   <v>       0.00200000 </v>
   <v>       0.00200000 </v>
   <v>       0.00200000 </v>
   <v>       0.00200000 </v>
   <v>       0.00200000 </v>
   <v>       0.00200000 </v>
   <v>       0.00200000 </v>
   <v>       0.00200000 </v>
   <v>       0.00200000 </v>
   <v>       0.00200000 </v>
   <v>       0.00200000 </v>
   <v>       0.00200000 </v>
   <v>       0.00200000 </v>
   <v>       0.00200000 </v>
   <v>       0.00200000 </v>
   <v>       0.00200000 </v>
   <v>       0.00200000 </v>
   <v>       0.00200000 </v>
   <v>       0.00200000 </v>
   <v>       0.00200000 </v>
   <v>       0.00200000 </v>
   <v>       0.00200000 </v>
   <v>       0.00200000 </v>
   <v>       0.00200000 </v>
   <v>       0.00200000 </v>
   <v>       0.00200000 </v>
   <v>       0.00200000 </v>
   <v>       0.00200000 </v>
   <v>       0.00200000 </v>
   <v>       0.00200000 </v>
   <v>       0.00200000 </v>
   <v>       0.00200000 </v>
   <v>       0.00200000 </v>
   <v>       0.00200000 </v>
   <v>       0.00200000 </v>
   <v>       0.00200000 </v>
   <v>       0.00200000 </v>
   <v>       0.00200000 </v>
   <v>       0.00200000 </v>
   <v>       0.00200000 </v>
   <v>       0.00200000 </v>
   <v>       0.00200000 </v>
   <v>       0.00200000 </v>
   <v>       0.00200000 </v>
   <v>       0.00200000 </v>
   <v>       0.00200000 </v>
   <v>       0.00200000 </v>
   <v>       0.00200000 </v>
   <v>       0.00200000 </v>
   <v>       0.00200000 </v>
   <v>       0.00200000 </v>
   <v>       0.00200000 </v>
   <v>       0.00200000 </v>
   <v>       0.00200000 </v>
   <v>       0.00200000 </v>
   <v>       0.00200000 </v>
   <v>       0.00200000 </v>
   <v>       0.00200000 </v>
   <v>       0.00200000 </v>
   <v>       0.00200000 </v>
   <v>       0.00200000 </v>
   <v>       0.00200000 </v>
   <v>       0.00200000 </v>
   <v>       0.00200000 </v>
   <v>       0.00200000 </v>
   <v>       0.00200000 </v>
   <v>       0.00200000 </v>
   <v>       0.00200000 </v>
   <v>       0.00200000 </v>
   <v>       0.00200000 </v>
   <v>       0.00200000 </v>
   <v>       0.00200000 </v>
   <v>       0.00200000 </v>
   <v>       0.00200000 </v>
   <v>       0.00200000 </v>
   <v>       0.00200000 </v>
   <v>       0.00200000 </v>
   <v>       0.00200000 </v>
   <v>       0.00200000 </v>
   <v>       0.00200000 </v>
   <v>       0.00200000 </v>
   <v>       0.00200000 </v>
   <v>       0.00200000 </v>
   <v>       0.00200000 </v>
   <v>       0.00200000 </v>
   <v>       0.00200000 </v>
   <v>       0.00200000 </v>
   <v>       0.00200000 </v>
   <v>       0.00200000 </v>
   <v>       0.00200000 </v>
   <v>       0.00200000 </v>
   <v>       0.00200000 </v>
   <v>       0.00200000 </v>
   <v>       0.00200000 </v>
   <v>       0.00200000 </v>
   <v>       0.00200000 </v>
   <v>       0.00200000 </v>
   <v>       0.00200000 </v>
   <v>       0.00200000 </v>
   <v>       0.00200000 </v>
   <v>       0.00200000 </v>
   <v>       0.00200000 </v>
   <v>       0.00200000 </v>
   <v>       0.00200000 </v>
   <v>       0.00200000 </v>
   <v>       0.00200000 </v>
   <v>       0.00200000 </v>
   <v>       0.00200000 </v>
   <v>       0.00200000 </v>
   <v>       0.00200000 </v>
   <v>       0.00200000 </v>
   <v>       0.00200000 </v>
   <v>       0.00200000 </v>
   <v>       0.00200000 </v>
   <v>       0.00100000 </v>
   <v>       0.00200000 </v>
   <v>       0.00200000 </v>
   <v>       0.00200000 </v>
   <v>       0.00200000 </v>
   <v>       0.00100000 </v>
   <v>       0.00200000 </v>
   <v>       0.00200000 </v>
   <v>       0.00200000 </v>
   <v>       0.00200000 </v>
   <v>       0.00200000 </v>
   <v>       0.00200000 </v>
   <v>       0.00200000 </v>
   <v>       0.00200000 </v>
   <v>       0.00200000 </v>
   <v>       0.00200000 </v>
   <v>       0.00200000 </v>
   <v>       0.00200000 </v>
   <v>       0.00200000 </v>
   <v>       0.00200000 </v>
   <v>       0.00200000 </v>
   <v>       0.00200000 </v>
   <v>       0.00200000 </v>
   <v>       0.00200000 </v>
   <v>       0.00200000 </v>
   <v>       0.00200000 </v>
   <v>       0.00200000 </v>
   <v>       0.00200000 </v>
   <v>       0.00200000 </v>
   <v>       0.00200000 </v>
   <v>       0.00200000 </v>
   <v>       0.00200000 </v>
   <v>       0.00200000 </v>
   <v>       0.00200000 </v>
   <v>       0.00200000 </v>
   <v>       0.00200000 </v>
   <v>       0.00200000 </v>
   <v>       0.00200000 </v>
   <v>       0.00200000 </v>
   <v>       0.00200000 </v>
   <v>       0.00200000 </v>
   <v>       0.00200000 </v>
   <v>       0.00200000 </v>
   <v>       0.00200000 </v>
   <v>       0.00200000 </v>
   <v>       0.00200000 </v>
   <v>       0.00100000 </v>
   <v>       0.00200000 </v>
   <v>       0.00200000 </v>
   <v>       0.00200000 </v>
   <v>       0.00200000 </v>
   <v>       0.00100000 </v>
  </varray>
 </kpoints>
 <parameters>
  <separator name="general" >
   <i type="string" name="SYSTEM">ice</i>
   <i type="logical" name="LCOMPAT"> F  </i>
  </separator>
  <separator name="electronic" >
   <i type="string" name="PREC">normal</i>
   <i name="ENMAX">    400.00000000</i>
   <i name="ENAUG">    605.39200000</i>
   <i name="EDIFF">      0.00000100</i>
   <i type="int" name="IALGO">    48</i>
   <i type="int" name="IWAVPR">    10</i>
   <i type="int" name="NBANDS">   172</i>
   <i name="NELECT">    248.00000000</i>
   <i type="int" name="TURBO">     0</i>
   <i type="int" name="IRESTART">     0</i>
   <i type="int" name="NREBOOT">     0</i>
   <i type="int" name="NMIN">     0</i>
   <i name="EREF">      0.00000000</i>
   <separator name="electronic smearing" >
    <i type="int" name="ISMEAR">    -1</i>
    <i name="SIGMA">      0.05000000</i>
    <i name="KSPACING">      0.50000000</i>
    <i type="logical" name="KGAMMA"> T  </i>
   </separator>
   <separator name="electronic projectors" >
    <i type="logical" name="LREAL"> T  </i>
    <v name="ROPT">     -0.00050000     -0.00050000</v>
    <i type="int" name="LMAXPAW">  -100</i>
    <i type="int" name="LMAXMIX">     2</i>
    <i type="logical" name="NLSPLINE"> F  </i>
   </separator>
   <separator name="electronic startup" >
    <i type="int" name="ISTART">     0</i>
    <i type="int" name="ICHARG">     1</i>
    <i type="int" name="INIWAV">     1</i>
   </separator>
   <separator name="electronic spin" >
    <i type="int" name="ISPIN">     1</i>
    <i type="logical" name="LNONCOLLINEAR"> F  </i>
    <v name="MAGMOM">      1.00000000      1.00000000      1.00000000      1.00000000      1.00000000      1.00000000      1.00000000      1.00000000      1.00000000      1.00000000      1.00000000      1.00000000      1.00000000      1.00000000      1.00000000      1.00000000      1.00000000      1.00000000      1.00000000      1.00000000
      1.00000000      1.00000000      1.00000000      1.00000000      1.00000000      1.00000000      1.00000000      1.00000000      1.00000000      1.00000000      1.00000000      1.00000000      1.00000000      1.00000000      1.00000000      1.00000000      1.00000000      1.00000000      1.00000000      1.00000000
      1.00000000      1.00000000      1.00000000      1.00000000      1.00000000      1.00000000      1.00000000      1.00000000      1.00000000      1.00000000      1.00000000      1.00000000      1.00000000      1.00000000      1.00000000      1.00000000      1.00000000      1.00000000      1.00000000      1.00000000
      1.00000000      1.00000000      1.00000000      1.00000000      1.00000000      1.00000000      1.00000000      1.00000000      1.00000000      1.00000000      1.00000000      1.00000000      1.00000000      1.00000000      1.00000000      1.00000000      1.00000000      1.00000000      1.00000000      1.00000000
      1.00000000      1.00000000      1.00000000      1.00000000      1.00000000      1.00000000      1.00000000      1.00000000      1.00000000      1.00000000      1.00000000      1.00000000      1.00000000</v>
    <i name="NUPDOWN">     -1.00000000</i>
    <i type="logical" name="LSORBIT"> F  </i>
    <v name="SAXIS">      0.00000000      0.00000000      1.00000000</v>
    <i type="logical" name="LSPIRAL"> F  </i>
    <v name="QSPIRAL">      0.00000000      0.00000000      0.00000000</v>
    <i type="logical" name="LZEROZ"> F  </i>
   </separator>
   <separator name="electronic exchange-correlation" >
    <i type="logical" name="LASPH"> F  </i>
    <i type="logical" name="LMETAGGA"> F  </i>
   </separator>
   <separator name="electronic convergence" >
    <i type="int" name="NELM">   500</i>
    <i type="int" name="NELMDL">     0</i>
    <i type="int" name="NELMIN">     4</i>
    <i name="ENINI">    400.00000000</i>
    <separator name="electronic convergence detail" >
     <i type="logical" name="LDIAG"> T  </i>
     <i type="logical" name="LSUBROT"> F  </i>
     <i name="WEIMIN">      0.00000000</i>
     <i name="EBREAK">      0.00000000</i>
     <i name="DEPER">      0.30000000</i>
     <i type="int" name="NRMM">     4</i>
     <i name="TIME">      0.40000000</i>
    </separator>
   </separator>
   <separator name="electronic mixer" >
    <i name="AMIX">      0.40000000</i>
    <i name="BMIX">      1.00000000</i>
    <i name="AMIN">      0.10000000</i>
    <i name="AMIX_MAG">      1.60000000</i>
    <i name="BMIX_MAG">      1.00000000</i>
    <separator name="electronic mixer details" >
     <i type="int" name="IMIX">     4</i>
     <i type="logical" name="MIXFIRST"> F  </i>
     <i type="int" name="MAXMIX">    40</i>
     <i name="WC">    100.00000000</i>
     <i type="int" name="INIMIX">     1</i>
     <i type="int" name="MIXPRE">     1</i>
     <i type="int" name="MREMOVE">     5</i>
    </separator>
   </separator>
   <separator name="electronic dipolcorrection" >
    <i type="logical" name="LDIPOL"> F  </i>
    <i type="logical" name="LMONO"> F  </i>
    <i type="int" name="IDIPOL">     0</i>
    <i name="EPSILON">      1.00000000</i>
    <v name="DIPOL">   -100.00000000   -100.00000000   -100.00000000</v>
    <i name="EFIELD">      0.00000000</i>
   </separator>
  </separator>
  <separator name="grids" >
   <i type="int" name="NGX">    48</i>
   <i type="int" name="NGY">    48</i>
   <i type="int" name="NGZ">    48</i>
   <i type="int" name="NGXF">    96</i>
   <i type="int" name="NGYF">    96</i>
   <i type="int" name="NGZF">    96</i>
   <i type="logical" name="ADDGRID"> F  </i>
  </separator>
  <separator name="ionic" >
   <i type="int" name="NSW">     0</i>
   <i type="int" name="IBRION">    -1</i>
   <i type="int" name="MDALGO">     0</i>
   <i type="int" name="ISIF">     2</i>
   <i name="PSTRESS">      0.00000000</i>
   <i name="EDIFFG">      0.00001000</i>
   <i type="int" name="NFREE">     0</i>
   <i name="POTIM">      0.50000000</i>
   <i name="SMASS">     -3.00000000</i>
   <i name="SCALEE">      1.00000000</i>
  </separator>
  <separator name="ionic md" >
   <i name="TEBEG">      0.00010000</i>
   <i name="TEEND">      0.00010000</i>
   <i type="int" name="NBLOCK">     1</i>
   <i type="int" name="KBLOCK">     1</i>
   <i type="int" name="NPACO">   256</i>
   <i name="APACO">     16.00000000</i>
  </separator>
  <separator name="symmetry" >
   <i type="int" name="ISYM">     2</i>
   <i name="SYMPREC">      0.00001000</i>
  </separator>
  <separator name="dos" >
   <i type="int" name="LORBIT">     0</i>
   <v name="RWIGS">     -1.00000000     -1.00000000</v>
   <i type="int" name="NEDOS">   301</i>
   <i name="EMIN">     10.00000000</i>
   <i name="EMAX">    -10.00000000</i>
   <i name="EFERMI">      0.00000000</i>
  </separator>
  <separator name="writing" >
   <i type="int" name="NWRITE">     0</i>
   <i type="logical" name="LWAVE"> F  </i>
   <i type="logical" name="LDOWNSAMPLE"> F  </i>
   <i type="logical" name="LCHARG"> F  </i>
   <i type="logical" name="LPARD"> F  </i>
   <i type="logical" name="LVTOT"> F  </i>
   <i type="logical" name="LVHAR"> T  </i>
   <i type="logical" name="LELF"> F  </i>
   <i type="logical" name="LOPTICS"> F  </i>
   <v name="STM">      0.00000000      0.00000000      0.00000000      0.00000000      0.00000000      0.00000000      0.00000000</v>
  </separator>
  <separator name="performance" >
   <i type="int" name="NPAR">     2</i>
   <i type="int" name="NSIM">     4</i>
   <i type="int" name="NBLK">    -1</i>
   <i type="logical" name="LPLANE"> T  </i>
   <i type="logical" name="LSCALAPACK"> T  </i>
   <i type="logical" name="LSCAAWARE"> F  </i>
   <i type="logical" name="LSCALU"> F  </i>
   <i type="logical" name="LASYNC"> F  </i>
   <i type="logical" name="LORBITALREAL"> F  </i>
  </separator>
  <separator name="miscellaneous" >
   <i type="int" name="IDIOT">     3</i>
   <i type="int" name="ISPECIAL">     0</i>
   <i type="logical" name="LMUSIC"> F  </i>
   <v name="POMASS">     16.00000000      1.00000000</v>
   <v name="DARWINR">      0.00000000      0.00000000</v>
   <v name="DARWINV">      1.00000000      1.00000000</v>
   <i type="logical" name="LCORR"> T  </i>
  </separator>
  <i type="logical" name="GGA_COMPAT"> T  </i>
  <i type="logical" name="LBERRY"> F  </i>
  <i type="int" name="ICORELEVEL">     0</i>
  <i type="logical" name="LDAU"> F  </i>
  <i type="int" name="I_CONSTRAINED_M">     0</i>
  <separator name="electronic exchange-correlation" >
   <i type="string" name="GGA">--</i>
   <i type="int" name="VOSKOWN">     0</i>
   <i type="logical" name="LHFCALC"> F  </i>
   <i type="string" name="PRECFOCK"></i>
   <i type="logical" name="LSYMGRAD"> F  </i>
   <i type="logical" name="LHFONE"> F  </i>
   <i type="logical" name="LRHFCALC"> F  </i>
   <i type="logical" name="LTHOMAS"> F  </i>
   <i type="logical" name="LMODELHF"> F  </i>
   <i name="ENCUT4O">     -1.00000000</i>
   <i type="int" name="EXXOEP">     0</i>
   <i type="int" name="FOURORBIT">     0</i>
   <i name="AEXX">      0.00000000</i>
   <i name="HFALPHA">      0.00000000</i>
   <i name="MCALPHA">      0.00000000</i>
   <i name="ALDAX">      1.00000000</i>
   <i name="AGGAX">      1.00000000</i>
   <i name="ALDAC">      1.00000000</i>
   <i name="AGGAC">      1.00000000</i>
   <i type="int" name="NKREDX">     1</i>
   <i type="int" name="NKREDY">     1</i>
   <i type="int" name="NKREDZ">     1</i>
   <i type="logical" name="SHIFTRED"> F  </i>
   <i type="logical" name="ODDONLY"> F  </i>
   <i type="logical" name="EVENONLY"> F  </i>
   <i type="int" name="LMAXFOCK">     0</i>
   <i type="int" name="NMAXFOCKAE">     0</i>
   <i type="logical" name="LFOCKAEDFT"> F  </i>
   <i name="HFSCREEN">      0.00000000</i>
   <i name="HFSCREENC">      0.00000000</i>
   <i type="int" name="NBANDSGWLOW">     0</i>
  </separator>
  <separator name="vdW DFT" >
   <i type="logical" name="LUSE_VDW"> F  </i>
   <i name="Zab_VDW">     -0.84910000</i>
   <i name="PARAM1">      0.12340000</i>
   <i name="PARAM2">      1.00000000</i>
   <i name="PARAM3">      0.00000000</i>
  </separator>
  <separator name="model GW" >
   <i type="int" name="MODEL_GW">     0</i>
   <i name="MODEL_EPS0">      6.09994528</i>
   <i name="MODEL_ALPHA">      1.00000000</i>
  </separator>
  <separator name="linear response parameters" >
   <i type="logical" name="LEPSILON"> F  </i>
   <i type="logical" name="LRPA"> F  </i>
   <i type="logical" name="LNABLA"> F  </i>
   <i type="logical" name="LVEL"> F  </i>
   <i type="int" name="KINTER">     0</i>
   <i name="CSHIFT">      0.10000000</i>
   <i name="OMEGAMAX">     -1.00000000</i>
   <i name="DEG_THRESHOLD">      0.00200000</i>
   <i name="RTIME">     -0.10000000</i>
   <i name="WPLASMAI">      0.00000000</i>
   <v name="DFIELD">      0.00000000      0.00000000      0.00000000</v>
   <v name="WPLASMA">      0.00000000      0.00000000      0.00000000      0.00000000      0.00000000      0.00000000      0.00000000      0.00000000      0.00000000</v>
  </separator>
  <separator name="orbital magnetization" >
   <i type="logical" name="NUCIND"> F  </i>
   <v name="MAGPOS">      0.00000000      0.00000000      0.00000000</v>
   <i type="logical" name="LNICSALL"> T  </i>
   <i type="logical" name="ORBITALMAG"> F  </i>
   <i type="logical" name="LMAGBLOCH"> F  </i>
   <i type="logical" name="LCHIMAG"> F  </i>
   <i type="logical" name="LGAUGE"> T  </i>
   <i type="int" name="MAGATOM">     0</i>
   <v name="MAGDIPOL">      0.00000000      0.00000000      0.00000000</v>
   <v name="AVECCONST">      0.00000000      0.00000000      0.00000000</v>
  </separator>
  <separator name="response functions" >
   <i type="logical" name="LADDER"> F  </i>
   <i type="logical" name="LRPAFORCE"> F  </i>
   <i type="logical" name="LFXC"> F  </i>
   <i type="logical" name="LHARTREE"> T  </i>
   <i type="int" name="IBSE">     0</i>
   <v type="int" name="KPOINT">    -1     0     0     0</v>
   <i type="logical" name="LTCTE"> F  </i>
   <i type="logical" name="LTETE"> F  </i>
   <i type="logical" name="LTRIPLET"> F  </i>
   <i type="logical" name="LFXCEPS"> F  </i>
   <i type="logical" name="LFXHEG"> F  </i>
   <i type="int" name="NATURALO">     2</i>
   <i type="logical" name="L2ORDER"> F  </i>
   <i type="logical" name="LMP2LT"> F  </i>
   <i type="logical" name="LUSEW"> F  </i>
   <i name="ENCUTGW">     -2.00000000</i>
   <i name="ENCUTGWSOFT">     -2.00000000</i>
   <i name="ENCUTLF">     -1.00000000</i>
   <i type="int" name="LMAXMP2">    -1</i>
   <i name="SCISSOR">      0.00000000</i>
   <i type="int" name="NOMEGA">     0</i>
   <i type="int" name="NOMEGAR">     0</i>
   <i type="int" name="NBANDSGW">    -1</i>
   <i type="int" name="NBANDSO">    -1</i>
   <i type="int" name="NBANDSV">    -1</i>
   <i type="int" name="NELM">   500</i>
   <i type="int" name="NELMHF">     1</i>
   <i type="int" name="DIM">     3</i>
   <i type="int" name="ANTIRES">     0</i>
   <i name="OMEGAMAX">    -30.00000000</i>
   <i name="OMEGAMIN">    -30.00000000</i>
   <i name="OMEGATL">   -200.00000000</i>
   <i type="int" name="OMEGAGRID">   140</i>
   <i name="CSHIFT">     -0.10000000</i>
   <i type="logical" name="SELFENERGY"> F  </i>
   <i type="logical" name="LSPECTRAL"> F  </i>
   <i type="logical" name="LSPECTRALGW"> F  </i>
   <i type="logical" name="LSINGLES"> F  </i>
   <i type="logical" name="LFERMIGW"> F  </i>
   <i type="logical" name="ODDONLYGW"> F  </i>
   <i type="logical" name="EVENONLYGW"> F  </i>
   <i type="int" name="NKREDLFX">     1</i>
   <i type="int" name="NKREDLFY">     1</i>
   <i type="int" name="NKREDLFZ">     1</i>
   <i type="int" name="MAXMEM">  2800</i>
   <i type="int" name="TELESCOPE">     0</i>
   <i type="int" name="TAUPAR">     1</i>
   <i type="int" name="OMEGAPAR">    -1</i>
   <i name="LAMBDA">      1.00000000</i>
  </separator>
  <separator name="External order field" >
   <i name="OFIELD_KAPPA">      0.00000000</i>
   <v name="OFIELD_K">      0.00000000      0.00000000      0.00000000</v>
   <i name="OFIELD_Q6_NEAR">      0.00000000</i>
   <i name="OFIELD_Q6_FAR">      0.00000000</i>
   <i name="OFIELD_A">      0.00000000</i>
  </separator>
 </parameters>
 <atominfo>
  <atoms>      93 </atoms>
  <types>       2 </types>
  <array name="atoms" >
   <dimension dim="1">ion</dimension>
   <field type="string">element</field>
   <field type="int">atomtype</field>
   <set>
    <rc><c>O </c><c>   1</c></rc>
    <rc><c>O </c><c>   1</c></rc>
    <rc><c>O </c><c>   1</c></rc>
    <rc><c>O </c><c>   1</c></rc>
    <rc><c>O </c><c>   1</c></rc>
    <rc><c>O </c><c>   1</c></rc>
    <rc><c>O </c><c>   1</c></rc>
    <rc><c>O </c><c>   1</c></rc>
    <rc><c>O </c><c>   1</c></rc>
    <rc><c>O </c><c>   1</c></rc>
    <rc><c>O </c><c>   1</c></rc>
    <rc><c>O </c><c>   1</c></rc>
    <rc><c>O </c><c>   1</c></rc>
    <rc><c>O </c><c>   1</c></rc>
    <rc><c>O </c><c>   1</c></rc>
    <rc><c>O </c><c>   1</c></rc>
    <rc><c>O </c><c>   1</c></rc>
    <rc><c>O </c><c>   1</c></rc>
    <rc><c>O </c><c>   1</c></rc>
    <rc><c>O </c><c>   1</c></rc>
    <rc><c>O </c><c>   1</c></rc>
    <rc><c>O </c><c>   1</c></rc>
    <rc><c>O </c><c>   1</c></rc>
    <rc><c>O </c><c>   1</c></rc>
    <rc><c>O </c><c>   1</c></rc>
    <rc><c>O </c><c>   1</c></rc>
    <rc><c>O </c><c>   1</c></rc>
    <rc><c>O </c><c>   1</c></rc>
    <rc><c>O </c><c>   1</c></rc>
    <rc><c>O </c><c>   1</c></rc>
    <rc><c>O </c><c>   1</c></rc>
    <rc><c>H </c><c>   2</c></rc>
    <rc><c>H </c><c>   2</c></rc>
    <rc><c>H </c><c>   2</c></rc>
    <rc><c>H </c><c>   2</c></rc>
    <rc><c>H </c><c>   2</c></rc>
    <rc><c>H </c><c>   2</c></rc>
    <rc><c>H </c><c>   2</c></rc>
    <rc><c>H </c><c>   2</c></rc>
    <rc><c>H </c><c>   2</c></rc>
    <rc><c>H </c><c>   2</c></rc>
    <rc><c>H </c><c>   2</c></rc>
    <rc><c>H </c><c>   2</c></rc>
    <rc><c>H </c><c>   2</c></rc>
    <rc><c>H </c><c>   2</c></rc>
    <rc><c>H </c><c>   2</c></rc>
    <rc><c>H </c><c>   2</c></rc>
    <rc><c>H </c><c>   2</c></rc>
    <rc><c>H </c><c>   2</c></rc>
    <rc><c>H </c><c>   2</c></rc>
    <rc><c>H </c><c>   2</c></rc>
    <rc><c>H </c><c>   2</c></rc>
    <rc><c>H </c><c>   2</c></rc>
    <rc><c>H </c><c>   2</c></rc>
    <rc><c>H </c><c>   2</c></rc>
    <rc><c>H </c><c>   2</c></rc>
    <rc><c>H </c><c>   2</c></rc>
    <rc><c>H </c><c>   2</c></rc>
    <rc><c>H </c><c>   2</c></rc>
    <rc><c>H </c><c>   2</c></rc>
    <rc><c>H </c><c>   2</c></rc>
    <rc><c>H </c><c>   2</c></rc>
    <rc><c>H </c><c>   2</c></rc>
    <rc><c>H </c><c>   2</c></rc>
    <rc><c>H </c><c>   2</c></rc>
    <rc><c>H </c><c>   2</c></rc>
    <rc><c>H </c><c>   2</c></rc>
    <rc><c>H </c><c>   2</c></rc>
    <rc><c>H </c><c>   2</c></rc>
    <rc><c>H </c><c>   2</c></rc>
    <rc><c>H </c><c>   2</c></rc>
    <rc><c>H </c><c>   2</c></rc>
    <rc><c>H </c><c>   2</c></rc>
    <rc><c>H </c><c>   2</c></rc>
    <rc><c>H </c><c>   2</c></rc>
    <rc><c>H </c><c>   2</c></rc>
    <rc><c>H </c><c>   2</c></rc>
    <rc><c>H </c><c>   2</c></rc>
    <rc><c>H </c><c>   2</c></rc>
    <rc><c>H </c><c>   2</c></rc>
    <rc><c>H </c><c>   2</c></rc>
    <rc><c>H </c><c>   2</c></rc>
    <rc><c>H </c><c>   2</c></rc>
    <rc><c>H </c><c>   2</c></rc>
    <rc><c>H </c><c>   2</c></rc>
    <rc><c>H </c><c>   2</c></rc>
    <rc><c>H </c><c>   2</c></rc>
    <rc><c>H </c><c>   2</c></rc>
    <rc><c>H </c><c>   2</c></rc>
    <rc><c>H </c><c>   2</c></rc>
    <rc><c>H </c><c>   2</c></rc>
    <rc><c>H </c><c>   2</c></rc>
    <rc><c>H </c><c>   2</c></rc>
   </set>
  </array>
  <array name="atomtypes" >
   <dimension dim="1">type</dimension>
   <field type="int">atomspertype</field>
   <field type="string">element</field>
   <field>mass</field>
   <field>valence</field>
   <field type="string">pseudopotential</field>
   <set>
    <rc><c>  31</c><c>O </c><c>     16.00000000</c><c>      6.00000000</c><c>  PAW_PBE O 08Apr2002                   </c></rc>
    <rc><c>  62</c><c>H </c><c>      1.00000000</c><c>      1.00000000</c><c>  PAW_PBE H 15Jun2001                   </c></rc>
   </set>
  </array>
 </atominfo>
 <structure name="initialpos" >
  <crystal>
   <varray name="basis" >
    <v>       9.81490000       0.00000000       0.00000000 </v>
    <v>       0.00000000       9.81490000       0.00000000 </v>
    <v>       0.00000000       0.00000000       9.81490000 </v>
   </varray>
   <i name="volume">    945.49151840 </i>
   <varray name="rec_basis" >
    <v>       0.10188591       0.00000000       0.00000000 </v>
    <v>       0.00000000       0.10188591       0.00000000 </v>
    <v>       0.00000000       0.00000000       0.10188591 </v>
   </varray>
  </crystal>
  <varray name="positions" >
   <v>       0.58007825       0.38460911       0.13049547 </v>
   <v>       0.12678682       0.81065217       0.60808465 </v>
   <v>       0.08636349       0.56304700       0.75225626 </v>
   <v>       0.06976648       0.38309815       0.40746314 </v>
   <v>       0.06954151       0.76404752       0.16706029 </v>
   <v>       0.74868007       0.01863340       0.69936423 </v>
   <v>       0.72029975       0.39280074       0.75736279 </v>
   <v>       0.57451324       0.19109313       0.79056536 </v>
   <v>       0.01370793       0.21352026       0.18370029 </v>
   <v>       0.27985817       0.85774893       0.97801241 </v>
   <v>       0.83990973       0.39263569       0.02211454 </v>
   <v>       0.27231454       0.21278362       0.70574738 </v>
   <v>       0.96295194       0.33092747       0.67114591 </v>
   <v>       0.67680262       0.04388817       0.43445476 </v>
   <v>       0.34579364       0.60987274       0.85027560 </v>
   <v>       0.23183629       0.13718836       0.95067092 </v>
   <v>       0.46618203       0.14060969       0.09200511 </v>
   <v>       0.68321124       0.65365210       0.41884889 </v>
   <v>       0.84399230       0.94896535       0.23728107 </v>
   <v>       0.34175488       0.36316621       0.44007886 </v>
   <v>       0.41295989       0.11879184       0.37907671 </v>
   <v>       0.00387014       0.04610266       0.63075019 </v>
   <v>       0.14530764       0.03631010       0.37328450 </v>
   <v>       0.37380921       0.83351231       0.49986245 </v>
   <v>       0.35358893       0.54351038       0.11275815 </v>
   <v>       0.46558702       0.73509664       0.26201999 </v>
   <v>       0.55480851       0.65211362       0.71194510 </v>
   <v>       0.63735036       0.35655891       0.39870809 </v>
   <v>       0.93459210       0.65359708       0.95178575 </v>
   <v>       0.60185534       0.91056037       0.09829820 </v>
   <v>       0.97184383       0.66475766       0.39946102 </v>
   <v>       0.53392189       0.47011483       0.12172819 </v>
   <v>       0.67847253       0.40687220       0.08189589 </v>
   <v>       0.06793650       0.79717572       0.52857390 </v>
   <v>       0.11333585       0.72500586       0.66863748 </v>
   <v>       0.04911532       0.46629105       0.74899286 </v>
   <v>       0.16984585       0.57384283       0.80112584 </v>
   <v>       0.17233390       0.40691194       0.40749575 </v>
   <v>       0.02922760       0.35278709       0.50127867 </v>
   <v>       0.03964870       0.84964289       0.18904930 </v>
   <v>       0.04867946       0.72110261       0.24917014 </v>
   <v>       0.68359229       0.01474585       0.61904553 </v>
   <v>       0.71982394       0.93860233       0.74848037 </v>
   <v>       0.67690450       0.46130068       0.70385129 </v>
   <v>       0.65027153       0.32434869       0.80607342 </v>
   <v>       0.51381369       0.16745662       0.86700017 </v>
   <v>       0.62553668       0.11494259       0.78477213 </v>
   <v>       0.93805704       0.25654872       0.15035303 </v>
   <v>       0.04599456       0.25845195       0.27862739 </v>
   <v>       0.24892154       0.96659579       0.96885317 </v>
   <v>       0.23119848       0.81359871       0.05802484 </v>
   <v>       0.80436377       0.39975649       0.92926622 </v>
   <v>       0.86107347       0.49410896       0.02345821 </v>
   <v>       0.18111137       0.19562808       0.69138453 </v>
[...]
       <r>   -22.0189    29.5733    31.9425 </r>
       <r>   -21.9032    27.4911    35.1254 </r>
       <r>   -21.7874    30.5522    38.6635 </r>
       <r>   -21.6717    22.7860    41.3083 </r>
       <r>   -21.5560    10.9393    42.5766 </r>
       <r>   -21.4403    18.2940    44.7003 </r>
       <r>   -21.3246    25.3198    47.6384 </r>
       <r>   -21.2089    28.5904    50.9466 </r>
       <r>   -21.0932    18.5095    53.0936 </r>
       <r>   -20.9775     6.7691    53.8794 </r>
       <r>   -20.8618     1.2616    54.0321 </r>
       <r>   -20.7460     2.9428    54.3737 </r>
       <r>   -20.6303     9.3266    55.4540 </r>
       <r>   -20.5146     8.2771    56.4118 </r>
       <r>   -20.3989     9.6568    57.5292 </r>
       <r>   -20.2832     3.5745    57.9428 </r>
       <r>   -20.1675     0.5560    58.0080 </r>
       <r>   -20.0518     1.0180    58.1316 </r>
       <r>   -19.9361     6.0549    58.8322 </r>
       <r>   -19.8204     7.9867    59.7564 </r>
       <r>   -19.7046     1.8716    59.9730 </r>
       <r>   -19.5889     0.2104    59.9973 </r>
       <r>   -19.4732     0.0000    60.0000 </r>
       <r>   -19.3575     0.0000    60.0000 </r>
       <r>   -19.2418     0.0040    60.0005 </r>
       <r>   -19.1261     0.0365    60.0047 </r>
       <r>   -19.0104     0.3611    60.0465 </r>
       <r>   -18.8947     2.9515    60.3880 </r>
       <r>   -18.7790     8.8996    61.4178 </r>
       <r>   -18.6633     4.3575    61.9220 </r>
       <r>   -18.5475     0.6052    61.9920 </r>
       <r>   -18.4318     0.0622    61.9992 </r>
       <r>   -18.3161     0.0000    62.0000 </r>
       <r>   -18.2004     0.0000    62.0000 </r>
       <r>   -18.0847     0.0000    62.0000 </r>
       <r>   -17.9690     0.0000    62.0000 </r>
       <r>   -17.8533     0.0000    62.0000 </r>
       <r>   -17.7376     0.0000    62.0000 </r>
       <r>   -17.6219     0.0000    62.0000 </r>
       <r>   -17.5061     0.0000    62.0000 </r>
       <r>   -17.3904     0.0000    62.0000 </r>
       <r>   -17.2747     0.0000    62.0000 </r>
       <r>   -17.1590     0.0000    62.0000 </r>
       <r>   -17.0433     0.0000    62.0000 </r>
       <r>   -16.9276     0.0000    62.0000 </r>
       <r>   -16.8119     0.0000    62.0000 </r>
       <r>   -16.6962     0.0000    62.0000 </r>
       <r>   -16.5805     0.0000    62.0000 </r>
       <r>   -16.4647     0.0000    62.0000 </r>
       <r>   -16.3490     0.0000    62.0000 </r>
       <r>   -16.2333     0.0000    62.0000 </r>
       <r>   -16.1176     0.0000    62.0000 </r>
       <r>   -16.0019     0.0000    62.0000 </r>
       <r>   -15.8862     0.0000    62.0000 </r>
       <r>   -15.7705     0.0000    62.0000 </r>
       <r>   -15.6548     0.0000    62.0000 </r>
       <r>   -15.5391     0.0000    62.0000 </r>
       <r>   -15.4234     0.0000    62.0000 </r>
       <r>   -15.3076     0.0000    62.0000 </r>
       <r>   -15.1919     0.0000    62.0000 </r>
       <r>   -15.0762     0.0000    62.0000 </r>
       <r>   -14.9605     0.0000    62.0000 </r>
       <r>   -14.8448     0.0000    62.0000 </r>
       <r>   -14.7291     0.0000    62.0000 </r>
       <r>   -14.6134     0.0000    62.0000 </r>
       <r>   -14.4977     0.0000    62.0000 </r>
       <r>   -14.3820     0.0000    62.0000 </r>
       <r>   -14.2662     0.0000    62.0000 </r>
       <r>   -14.1505     0.0000    62.0000 </r>
       <r>   -14.0348     0.0000    62.0000 </r>
       <r>   -13.9191     0.0000    62.0000 </r>
       <r>   -13.8034     0.0000    62.0000 </r>
       <r>   -13.6877     0.0000    62.0000 </r>
       <r>   -13.5720     0.0000    62.0000 </r>
       <r>   -13.4563     0.0000    62.0000 </r>
       <r>   -13.3406     0.0000    62.0000 </r>
       <r>   -13.2249     0.0000    62.0000 </r>
       <r>   -13.1091     0.0000    62.0000 </r>
       <r>   -12.9934     0.0000    62.0000 </r>
       <r>   -12.8777     0.0000    62.0000 </r>
       <r>   -12.7620     0.0000    62.0000 </r>
       <r>   -12.6463     0.0000    62.0000 </r>
       <r>   -12.5306     0.0000    62.0000 </r>
       <r>   -12.4149     0.0000    62.0000 </r>
       <r>   -12.2992     0.0000    62.0000 </r>
       <r>   -12.1835     0.0000    62.0000 </r>
       <r>   -12.0677     0.0050    62.0006 </r>
       <r>   -11.9520     0.0455    62.0058 </r>
       <r>   -11.8363     0.4484    62.0577 </r>
       <r>   -11.7206     3.5035    62.4631 </r>
       <r>   -11.6049     9.1191    63.5183 </r>
       <r>   -11.4892     4.7721    64.0705 </r>
       <r>   -11.3735     7.8822    64.9825 </r>
       <r>   -11.2578    17.1622    66.9748 </r>
       <r>   -11.1421     8.0958    67.9116 </r>
       <r>   -11.0263     4.5916    68.4429 </r>
       <r>   -10.9106    15.6676    70.2597 </r>
       <r>   -10.7949    23.4576    72.9750 </r>
       <r>   -10.6792    20.3931    75.3347 </r>
       <r>   -10.5635    11.1952    76.6301 </r>
       <r>   -10.4478    15.7150    78.4531 </r>
       <r>   -10.3321    25.0713    81.3618 </r>
       <r>   -10.2164    27.8045    84.5792 </r>
       <r>   -10.1007    20.8590    86.9971 </r>
       <r>    -9.9850    23.8646    89.7637 </r>
       <r>    -9.8692    24.2276    92.5729 </r>
       <r>    -9.7535    24.3750    95.3955 </r>
       <r>    -9.6378    36.7213    99.6468 </r>
       <r>    -9.5221    28.4583   102.9445 </r>
       <r>    -9.4064    10.0939   104.1154 </r>
       <r>    -9.2907    11.0755   105.4029 </r>
       <r>    -9.1750    16.2595   107.2881 </r>
       <r>    -9.0593    14.9490   109.0188 </r>
       <r>    -8.9436    22.8220   111.6596 </r>
       <r>    -8.8278    28.7541   114.9883 </r>
       <r>    -8.7121    21.1332   117.4347 </r>
       <r>    -8.5964     7.5246   118.3082 </r>
       <r>    -8.4807    14.7046   120.0161 </r>
       <r>    -8.3650    17.1035   122.0013 </r>
       <r>    -8.2493    13.0019   123.5057 </r>
       <r>    -8.1336    11.9519   124.8887 </r>
       <r>    -8.0179     9.2817   125.9669 </r>
       <r>    -7.9022    11.2975   127.2760 </r>
       <r>    -7.7865    18.9108   129.4656 </r>
       <r>    -7.6707    18.8028   131.6440 </r>
       <r>    -7.5550    20.6639   134.0350 </r>
       <r>    -7.4393    22.2493   136.6122 </r>
       <r>    -7.3236    26.0308   139.6253 </r>
       <r>    -7.2079    28.4299   142.9189 </r>
       <r>    -7.0922    25.3301   145.8538 </r>
       <r>    -6.9765    22.8250   148.4982 </r>
       <r>    -6.8608    19.0186   150.7041 </r>
       <r>    -6.7451    19.0370   152.9096 </r>
       <r>    -6.6293    23.1502   155.5928 </r>
       <r>    -6.5136    26.3200   158.6412 </r>
       <r>    -6.3979    20.7424   161.0444 </r>
       <r>    -6.2822    11.3005   162.3547 </r>
       <r>    -6.1665    12.9956   163.8635 </r>
       <r>    -6.0508    18.3430   165.9894 </r>
       <r>    -5.9351    19.3732   168.2323 </r>
       <r>    -5.8194    17.7084   170.2828 </r>
       <r>    -5.7037    17.7333   172.3371 </r>
       <r>    -5.5879    21.9360   174.8777 </r>
       <r>    -5.4722    24.9147   177.7645 </r>
       <r>    -5.3565    27.2135   180.9152 </r>
       <r>    -5.2408    23.8195   183.6754 </r>
       <r>    -5.1251    28.9354   187.0259 </r>
       <r>    -5.0094    30.7767   190.5927 </r>
       <r>    -4.8937    25.1536   193.5049 </r>
       <r>    -4.7780    26.4737   196.5714 </r>
       <r>    -4.6623    27.1358   199.7185 </r>
       <r>    -4.5466    26.1776   202.7496 </r>
       <r>    -4.4308    44.8232   207.9433 </r>
       <r>    -4.3151    63.2455   215.2646 </r>
       <r>    -4.1994    44.9488   220.4714 </r>
       <r>    -4.0837    29.2962   223.8662 </r>
       <r>    -3.9680    26.9694   226.9978 </r>
       <r>    -3.8523    29.3083   230.3978 </r>
       <r>    -3.7366    33.1690   234.2376 </r>
       <r>    -3.6209    22.4121   236.8354 </r>
       <r>    -3.5052    22.5749   239.4546 </r>
       <r>    -3.3894    19.0805   241.6681 </r>
       <r>    -3.2737    16.6079   243.5919 </r>
       <r>    -3.1580    13.1779   245.1207 </r>
       <r>    -3.0423     6.4594   245.8689 </r>
       <r>    -2.9266     1.0078   245.9864 </r>
       <r>    -2.8109     0.1006   245.9988 </r>
       <r>    -2.6952     0.0078   246.0010 </r>
       <r>    -2.5795     0.0781   246.0100 </r>
       <r>    -2.4638     0.7524   246.0971 </r>
       <r>    -2.3481     5.0454   246.6809 </r>
       <r>    -2.2323     8.6220   247.6786 </r>
       <r>    -2.1166     2.4569   247.9628 </r>
       <r>    -2.0009     0.2888   247.9963 </r>
       <r>    -1.8852     0.0000   248.0000 </r>
       <r>    -1.7695     0.0000   248.0000 </r>
       <r>    -1.6538     0.0000   248.0000 </r>
       <r>    -1.5381     0.0000   248.0000 </r>
       <r>    -1.4224     0.0000   248.0000 </r>
       <r>    -1.3067     0.0000   248.0000 </r>
       <r>    -1.1909     0.0000   248.0000 </r>
       <r>    -1.0752     0.0000   248.0000 </r>
       <r>    -0.9595     0.0000   248.0000 </r>
       <r>    -0.8438     0.0000   248.0000 </r>
       <r>    -0.7281     0.0000   248.0000 </r>
       <r>    -0.6124     0.0000   248.0000 </r>
       <r>    -0.4967     0.0000   248.0000 </r>
       <r>    -0.3810     0.0000   248.0000 </r>
       <r>    -0.2653     0.0000   248.0000 </r>
       <r>    -0.1495     0.0000   248.0000 </r>
       <r>    -0.0338     0.0000   248.0000 </r>
       <r>     0.0819     0.0000   248.0000 </r>
       <r>     0.1976     0.0000   248.0000 </r>
       <r>     0.3133     0.0000   248.0000 </r>
       <r>     0.4290     0.0004   248.0001 </r>
       <r>     0.5447     0.0046   248.0006 </r>
       <r>     0.6604     0.0442   248.0057 </r>
       <r>     0.7761     0.3010   248.0405 </r>
       <r>     0.8918     0.9329   248.1485 </r>
       <r>     1.0076     1.5921   248.3327 </r>
       <r>     1.1233     2.1801   248.5850 </r>
       <r>     1.2390     2.7882   248.9077 </r>
       <r>     1.3547     3.2476   249.2836 </r>
       <r>     1.4704     3.8079   249.7246 </r>
       <r>     1.5861     4.7734   250.2774 </r>
       <r>     1.7018     5.6206   250.9282 </r>
       <r>     1.8175     5.1086   251.5198 </r>
       <r>     1.9332     3.2871   251.9008 </r>
       <r>     2.0490     3.0532   252.2549 </r>
       <r>     2.1647     5.1874   252.8562 </r>
       <r>     2.2804     7.0260   253.6697 </r>
       <r>     2.3961     7.3611   254.5217 </r>
       <r>     2.5118     6.5255   255.2774 </r>
       <r>     2.6275     6.3262   256.0105 </r>
       <r>     2.7432     6.9222   256.8128 </r>
       <r>     2.8589     8.0210   257.7419 </r>
       <r>     2.9746     8.2548   258.6980 </r>
       <r>     3.0903     8.3115   259.6606 </r>
       <r>     3.2061     8.7007   260.6687 </r>
       <r>     3.3218     9.6016   261.7810 </r>
       <r>     3.4375     9.8857   262.9261 </r>
       <r>     3.5532     9.4764   264.0238 </r>
       <r>     3.6689    10.2483   265.2112 </r>
       <r>     3.7846    11.4405   266.5364 </r>
       <r>     3.9003    13.1945   268.0648 </r>
       <r>     4.0160    14.0275   269.6893 </r>
       <r>     4.1317    14.2157   271.3357 </r>
       <r>     4.2475    14.1862   272.9791 </r>
       <r>     4.3632    14.2270   274.6277 </r>
       <r>     4.4789    14.4691   276.3041 </r>
       <r>     4.5946    14.4963   277.9837 </r>
       <r>     4.7103    15.0473   279.7269 </r>
       <r>     4.8260    15.3891   281.5097 </r>
       <r>     4.9417    16.2055   283.3869 </r>
       <r>     5.0574    17.0746   285.3650 </r>
       <r>     5.1731    18.1717   287.4700 </r>
       <r>     5.2889    19.2657   289.7017 </r>
       <r>     5.4046    20.5992   292.0877 </r>
       <r>     5.5203    20.8544   294.5034 </r>
       <r>     5.6360    21.2448   296.9644 </r>
       <r>     5.7517    21.9677   299.5095 </r>
       <r>     5.8674    23.7279   302.2582 </r>
       <r>     5.9831    24.6416   305.1128 </r>
       <r>     6.0988    25.6818   308.0877 </r>
       <r>     6.2145    26.3260   311.1376 </r>
       <r>     6.3302    27.2523   314.2950 </r>
       <r>     6.4460    26.4370   317.3579 </r>
       <r>     6.5617    25.3524   320.2953 </r>
       <r>     6.6774    24.2756   323.1084 </r>
       <r>     6.7931    23.3453   325.8138 </r>
       <r>     6.9088    23.8220   328.5744 </r>
       <r>     7.0245    22.7509   331.2108 </r>
       <r>     7.1402    20.7206   333.6119 </r>
       <r>     7.2559    19.4053   335.8611 </r>
       <r>     7.3716    18.2674   337.9786 </r>
       <r>     7.4874    16.7146   339.9160 </r>
       <r>     7.6031    14.6331   341.6121 </r>
       <r>     7.7188    11.0745   342.8964 </r>
       <r>     7.8345     6.6090   343.6639 </r>
       <r>     7.9502     2.3219   343.9350 </r>
       <r>     8.0659     0.4752   343.9919 </r>
       <r>     8.1816     0.0520   343.9993 </r>
       <r>     8.2973     0.0030   344.0000 </r>
       <r>     8.4130     0.0000   344.0000 </r>
       <r>     8.5287     0.0000   344.0000 </r>
       <r>     8.6445     0.0000   344.0000 </r>
       <r>     8.7602     0.0000   344.0000 </r>
       <r>     8.8759     0.0000   344.0000 </r>
       <r>     8.9916     0.0000   344.0000 </r>
       <r>     9.1073     0.0000   344.0000 </r>
       <r>     9.2230     0.0000   344.0000 </r>
       <r>     9.3387     0.0000   344.0000 </r>
       <r>     9.4544     0.0000   344.0000 </r>
       <r>     9.5701     0.0000   344.0000 </r>
      </set>
     </set>
    </array>
   </total>
  </dos>
 </calculation>
 <structure name="finalpos" >
  <crystal>
   <varray name="basis" >
    <v>       9.81490000       0.00000000       0.00000000 </v>
    <v>       0.00000000       9.81490000       0.00000000 </v>
    <v>       0.00000000       0.00000000       9.81490000 </v>
   </varray>
   <i name="volume">    945.49151840 </i>
   <varray name="rec_basis" >
    <v>       0.10188591       0.00000000       0.00000000 </v>
    <v>       0.00000000       0.10188591       0.00000000 </v>
    <v>       0.00000000       0.00000000       0.10188591 </v>
   </varray>
  </crystal>
  <varray name="positions" >
   <v>       0.58007825       0.38460911       0.13049547 </v>
   <v>       0.12678682       0.81065217       0.60808465 </v>
   <v>       0.08636349       0.56304700       0.75225626 </v>
   <v>       0.06976648       0.38309815       0.40746314 </v>
   <v>       0.06954151       0.76404752       0.16706029 </v>
   <v>       0.74868007       0.01863340       0.69936423 </v>
   <v>       0.72029975       0.39280074       0.75736279 </v>
   <v>       0.57451324       0.19109313       0.79056536 </v>
   <v>       0.01370793       0.21352026       0.18370029 </v>
   <v>       0.27985817       0.85774893       0.97801241 </v>
   <v>       0.83990973       0.39263569       0.02211454 </v>
   <v>       0.27231454       0.21278362       0.70574738 </v>
   <v>       0.96295194       0.33092747       0.67114591 </v>
   <v>       0.67680262       0.04388817       0.43445476 </v>
   <v>       0.34579364       0.60987274       0.85027560 </v>
   <v>       0.23183629       0.13718836       0.95067092 </v>
   <v>       0.46618203       0.14060969       0.09200511 </v>
   <v>       0.68321124       0.65365210       0.41884889 </v>
   <v>       0.84399230       0.94896535       0.23728107 </v>
   <v>       0.34175488       0.36316621       0.44007886 </v>
   <v>       0.41295989       0.11879184       0.37907671 </v>
   <v>       0.00387014       0.04610266       0.63075019 </v>
   <v>       0.14530764       0.03631010       0.37328450 </v>
   <v>       0.37380921       0.83351231       0.49986245 </v>
   <v>       0.35358893       0.54351038       0.11275815 </v>
   <v>       0.46558702       0.73509664       0.26201999 </v>
   <v>       0.55480851       0.65211362       0.71194510 </v>
   <v>       0.63735036       0.35655891       0.39870809 </v>
   <v>       0.93459210       0.65359708       0.95178575 </v>
   <v>       0.60185534       0.91056037       0.09829820 </v>
   <v>       0.97184383       0.66475766       0.39946102 </v>
   <v>       0.53392189       0.47011483       0.12172819 </v>
   <v>       0.67847253       0.40687220       0.08189589 </v>
   <v>       0.06793650       0.79717572       0.52857390 </v>
   <v>       0.11333585       0.72500586       0.66863748 </v>
   <v>       0.04911532       0.46629105       0.74899286 </v>
   <v>       0.16984585       0.57384283       0.80112584 </v>
   <v>       0.17233390       0.40691194       0.40749575 </v>
   <v>       0.02922760       0.35278709       0.50127867 </v>
   <v>       0.03964870       0.84964289       0.18904930 </v>
   <v>       0.04867946       0.72110261       0.24917014 </v>
   <v>       0.68359229       0.01474585       0.61904553 </v>
   <v>       0.71982394       0.93860233       0.74848037 </v>
   <v>       0.67690450       0.46130068       0.70385129 </v>
   <v>       0.65027153       0.32434869       0.80607342 </v>
   <v>       0.51381369       0.16745662       0.86700017 </v>
   <v>       0.62553668       0.11494259       0.78477213 </v>
   <v>       0.93805704       0.25654872       0.15035303 </v>
   <v>       0.04599456       0.25845195       0.27862739 </v>
   <v>       0.24892154       0.96659579       0.96885317 </v>
   <v>       0.23119848       0.81359871       0.05802484 </v>
   <v>       0.80436377       0.39975649       0.92926622 </v>
   <v>       0.86107347       0.49410896       0.02345821 </v>
   <v>       0.18111137       0.19562808       0.69138453 </v>
   <v>       0.29520932       0.27447045       0.63237629 </v>
   <v>       0.98620404       0.23785877       0.65628585 </v>
   <v>       0.86185086       0.31013969       0.68837278 </v>
   <v>       0.69119400       0.14180583       0.41404192 </v>
   <v>       0.56448155       0.05005176       0.41576379 </v>
   <v>       0.35774078       0.57015354       0.95608412 </v>
   <v>       0.30391751       0.70257160       0.88833304 </v>
   <v>       0.23555003       0.19278036       0.85661494 </v>
   <v>       0.16600984       0.16403631       0.01131341 </v>
   <v>       0.37455603       0.13440178       0.05815057 </v>
   <v>       0.47637164       0.23650470       0.11586058 </v>
   <v>       0.63744511       0.62958665       0.52436092 </v>
   <v>       0.60542848       0.67333850       0.36715300 </v>
   <v>       0.90384558       0.03254949       0.18473647 </v>
   <v>       0.75727720       0.98221531       0.30407646 </v>
   <v>       0.40941222       0.42243018       0.46817899 </v>
   <v>       0.39042374       0.26745968       0.42104759 </v>
   <v>       0.30998482       0.09806376       0.36380401 </v>
   <v>       0.42935435       0.10503316       0.27520403 </v>
   <v>       0.90348083       0.02188733       0.64285525 </v>
   <v>       0.06159788       0.96544570       0.63020306 </v>
   <v>       0.06778592       0.03557499       0.29138860 </v>
   <v>       0.07479383       0.04896025       0.46723044 </v>
   <v>       0.29247878       0.79828118       0.55735565 </v>
   <v>       0.44472791       0.81523908       0.57338944 </v>
   <v>       0.39424039       0.61848720       0.15811776 </v>
   <v>       0.29154856       0.47299922       0.16756972 </v>
   <v>       0.43123822       0.75506220       0.34911512 </v>
   <v>       0.48721943       0.80684673       0.19920937 </v>
   <v>       0.59820375       0.69143241       0.79808862 </v>
   <v>       0.46264251       0.64022659       0.75558488 </v>
   <v>       0.61774445       0.37702473       0.29917167 </v>
   <v>       0.66952185       0.44447727       0.39682422 </v>
   <v>       0.00709829       0.61884584       0.85887783 </v>
   <v>       0.99045115       0.70820487       0.02754435 </v>
   <v>       0.55744531       0.00997320       0.08945674 </v>
   <v>       0.68976658       0.91840355       0.12517601 </v>
   <v>       0.87000071       0.65332199       0.40840151 </v>
   <v>       0.00517479       0.57181530       0.40702198 </v>
  </varray>
 </structure>
</modeling>
